      10
 i =      125, E =      -264.2656121229
  n         6.9611071665        8.1952388625        7.6621858275
  n         6.9611081664        5.7269893112        6.3378168909
  c         6.9611116083        7.0401690423        8.3252299428
  c         6.9611121063        5.8131481157        7.6668635359
  c         6.9611032796        8.1090800508        6.3331391767
  c         6.9611037749        6.8820591200        5.6747727767
  h         6.9611148643        7.0899586680        9.4091501292
  h         6.9611157638        4.8824473728        8.2247070310
  h         6.9610996407        9.0397807911        5.7752956899
  h         6.9611005310        6.8322694971        4.5908525902
