 DBCSR| CPU Multiplication driver                                           XSMM (U)
 DBCSR| Multrec recursion limit                                              512 (U)
 DBCSR| Multiplication stack size                                           1000 (D)
 DBCSR| Maximum elements for images                                    UNLIMITED (U)
 DBCSR| Multiplicative factor virtual images                                   1 (U)
 DBCSR| Use multiplication densification                                       T (D)
 DBCSR| Multiplication size stacks                                             3 (U)
 DBCSR| Use memory pool for CPU allocation                                     F (U)
 DBCSR| Number of 3D layers                                               SINGLE (U)
 DBCSR| Use MPI memory allocation                                              F (U)
 DBCSR| Use RMA algorithm                                                      F (U)
 DBCSR| Use Communication thread                                               T (U)
 DBCSR| Communication thread load                                             87 (D)
 DBCSR| MPI: My process id                                                     0
 DBCSR| MPI: Number of processes                                              16
 DBCSR| OMP: Current number of threads                                         1
 DBCSR| OMP: Max number of threads                                             1
 DBCSR| Split modifier for TAS multiplication algorithm                  1.0E+00 (U)


  **** **** ******  **  PROGRAM STARTED AT               2025-01-04 22:13:01.355
 ***** ** ***  *** **   PROGRAM STARTED ON                           nesh-srp113
 **    ****   ******    PROGRAM STARTED BY                              suphc356
 ***** **    ** ** **   PROGRAM PROCESS ID                               1641373
  **** **  *******  **  PROGRAM STARTED IN /gxfs_work/cau/suphc356/NEWTONX_proje
                                           ct/Pyrazin_molecule/CP2K_GAPW_B3LYP_d
                                           ef2_TZVP/MOLDYN_BA_again/TRAJECTORIES
                                           /TRAJ10/TEMP

 CP2K| version string:                 CP2K version 2024.1 (Development Version)
 CP2K| source code revision number:                                  git:990486a
 CP2K| cp2kflags: omp libint fftw3 libxc libgrpp parallel mpi_f08 scalapack cosm
 CP2K|            a xsmm spglib mkl
 CP2K| is freely available from                            https://www.cp2k.org/
 CP2K| Program compiled at                          Mon Mar 11 08:48:45 CET 2024
 CP2K| Program compiled on                                           nesh-login2
 CP2K| Program compiled for                                                local
 CP2K| Data directory path                 /gxfs_work/cau/suphc356/cp2k_gcc/data
 CP2K| Input file name                                                  cp2k.inp

 GLOBAL| Force Environment number                                              1
 GLOBAL| Basis set file name                                     EMSL_BASIS_SETS
 GLOBAL| Potential file name                                      ALL_POTENTIALS
 GLOBAL| MM Potential file name                                     MM_POTENTIAL
 GLOBAL| Coordinate file name                                      __STD_INPUT__
 GLOBAL| Method name                                                        CP2K
 GLOBAL| Project name                                               testsuite_ad
 GLOBAL| Run type                                                   ENERGY_FORCE
 GLOBAL| FFT library                                                       FFTW3
 GLOBAL| Diagonalization library                                       ScaLAPACK
 GLOBAL| DGEMM library                                                      BLAS
 GLOBAL| Orthonormality check for eigenvectors                          DISABLED
 GLOBAL| Matrix multiplication library                                     COSMA
 GLOBAL| All-to-all communication in single precision                          F
 GLOBAL| FFTs using library dependent lengths                                  F
 GLOBAL| Grid backend                                                       AUTO
 GLOBAL| Global print level                                               MEDIUM
 GLOBAL| MPI I/O enabled                                                       T
 GLOBAL| Total number of message passing processes                            16
 GLOBAL| Number of threads for this process                                    1
 GLOBAL| This output is from process                                           0
 GLOBAL| Stack size for threads created by OpenMP (OMP_STACKSIZE)           256M
 GLOBAL| CPU model name                              Intel(R) Xeon(R) Gold 6426Y
 GLOBAL| CPUID                                                              1003
 GLOBAL| Compiled for CPUID                                                    0

 *** HINT in environment.F:920 :: The compiler target flags (generic) used ***
 *** to build this binary cannot exploit all extensions of this CPU model  ***
 *** (x86_avx512). Consider compiler target flags as part of FCFLAGS and   ***
 *** CFLAGS (ARCH file).                                                   ***


 MEMORY| system memory details [Kb]
 MEMORY|                        rank 0           min           max       average
 MEMORY| MemTotal            263786136     263786136     263786136     263786136
 MEMORY| MemFree             242771216     242771216     242771216     242771216
 MEMORY| Buffers                549308        549308        549308        549308
 MEMORY| Cached                 594704        594704        594704        594704
 MEMORY| Slab                  5294472       5294472       5294472       5294472
 MEMORY| SReclaimable           163936        163936        163936        163936
 MEMORY| MemLikelyFree       244079164     244079164     244079164     244079164


 *** Fundamental physical constants (SI units) ***

 *** Literature: B. J. Mohr and B. N. Taylor,
 ***             CODATA recommended values of the fundamental physical
 ***             constants: 2006, Web Version 5.1
 ***             http://physics.nist.gov/constants

 Speed of light in vacuum [m/s]                             2.99792458000000E+08
 Magnetic constant or permeability of vacuum [N/A**2]       1.25663706143592E-06
 Electric constant or permittivity of vacuum [F/m]          8.85418781762039E-12
 Planck constant (h) [J*s]                                  6.62606896000000E-34
 Planck constant (h-bar) [J*s]                              1.05457162825177E-34
 Elementary charge [C]                                      1.60217648700000E-19
 Electron mass [kg]                                         9.10938215000000E-31
 Electron g factor [ ]                                     -2.00231930436220E+00
 Proton mass [kg]                                           1.67262163700000E-27
 Fine-structure constant                                    7.29735253760000E-03
 Rydberg constant [1/m]                                     1.09737315685270E+07
 Avogadro constant [1/mol]                                  6.02214179000000E+23
 Boltzmann constant [J/K]                                   1.38065040000000E-23
 Atomic mass unit [kg]                                      1.66053878200000E-27
 Bohr radius [m]                                            5.29177208590000E-11

 *** Conversion factors ***

 [u] -> [a.u.]                                              1.82288848426455E+03
 [Angstrom] -> [Bohr] = [a.u.]                              1.88972613288564E+00
 [a.u.] = [Bohr] -> [Angstrom]                              5.29177208590000E-01
 [a.u.] -> [s]                                              2.41888432650478E-17
 [a.u.] -> [fs]                                             2.41888432650478E-02
 [a.u.] -> [J]                                              4.35974393937059E-18
 [a.u.] -> [N]                                              8.23872205491840E-08
 [a.u.] -> [K]                                              3.15774647902944E+05
 [a.u.] -> [kJ/mol]                                         2.62549961709828E+03
 [a.u.] -> [kcal/mol]                                       6.27509468713739E+02
 [a.u.] -> [Pa]                                             2.94210107994716E+13
 [a.u.] -> [bar]                                            2.94210107994716E+08
 [a.u.] -> [atm]                                            2.90362800883016E+08
 [a.u.] -> [eV]                                             2.72113838565563E+01
 [a.u.] -> [Hz]                                             6.57968392072181E+15
 [a.u.] -> [1/cm] (wave numbers)                            2.19474631370540E+05
 [a.u./Bohr**2] -> [1/cm]                                   5.14048714338585E+03
 

 CELL_TOP| Volume [angstrom^3]:                                      2744.000000
 CELL_TOP| Vector a [angstrom    14.000     0.000     0.000   |a| =    14.000000
 CELL_TOP| Vector b [angstrom     0.000    14.000     0.000   |b| =    14.000000
 CELL_TOP| Vector c [angstrom     0.000     0.000    14.000   |c| =    14.000000
 CELL_TOP| Angle (b,c), alpha [degree]:                                90.000000
 CELL_TOP| Angle (a,c), beta  [degree]:                                90.000000
 CELL_TOP| Angle (a,b), gamma [degree]:                                90.000000
 CELL_TOP| Numerically orthorhombic:                                         YES
 CELL_TOP| Periodicity                                                      NONE

 CELL| Volume [angstrom^3]:                                          2744.000000
 CELL| Vector a [angstrom]:      14.000     0.000     0.000   |a| =    14.000000
 CELL| Vector b [angstrom]:       0.000    14.000     0.000   |b| =    14.000000
 CELL| Vector c [angstrom]:       0.000     0.000    14.000   |c| =    14.000000
 CELL| Angle (b,c), alpha [degree]:                                    90.000000
 CELL| Angle (a,c), beta  [degree]:                                    90.000000
 CELL| Angle (a,b), gamma [degree]:                                    90.000000
 CELL| Numerically orthorhombic:                                             YES
 CELL| Periodicity                                                          NONE

 CELL_REF| Volume [angstrom^3]:                                      2744.000000
 CELL_REF| Vector a [angstrom    14.000     0.000     0.000   |a| =    14.000000
 CELL_REF| Vector b [angstrom     0.000    14.000     0.000   |b| =    14.000000
 CELL_REF| Vector c [angstrom     0.000     0.000    14.000   |c| =    14.000000
 CELL_REF| Angle (b,c), alpha [degree]:                                90.000000
 CELL_REF| Angle (a,c), beta  [degree]:                                90.000000
 CELL_REF| Angle (a,b), gamma [degree]:                                90.000000
 CELL_REF| Numerically orthorhombic:                                         YES
 CELL_REF| Periodicity                                                      NONE

 *******************************************************************************
 *******************************************************************************
 **                                                                           **
 **     #####                         ##              ##                      **
 **    ##   ##            ##          ##              ##                      **
 **   ##     ##                       ##            ######                    **
 **   ##     ##  ##   ##  ##   #####  ##  ##   ####   ##    #####    #####    **
 **   ##     ##  ##   ##  ##  ##      ## ##   ##      ##   ##   ##  ##   ##   **
 **   ##  ## ##  ##   ##  ##  ##      ####     ###    ##   ######   ######    **
 **    ##  ###   ##   ##  ##  ##      ## ##      ##   ##   ##       ##        **
 **     #######   #####   ##   #####  ##  ##  ####    ##    #####   ##        **
 **           ##                                                    ##        **
 **                                                                           **
 **                                                ... make the atoms dance   **
 **                                                                           **
 **            Copyright (C) by CP2K developers group (2000-2024)             **
 **                      J. Chem. Phys. 152, 194103 (2020)                    **
 **                                                                           **
 *******************************************************************************

 DFT| Spin restricted Kohn-Sham (RKS) calculation                            RKS
 DFT| Multiplicity                                                             1
 DFT| Number of spin states                                                    1
 DFT| Charge                                                                   0
 DFT| Self-interaction correction (SIC)                                       NO
 DFT| Cutoffs: density                                              1.000000E-10
 DFT|          gradient                                             1.000000E-10
 DFT|          tau                                                  1.000000E-10
 DFT|          cutoff_smoothing_range                               0.000000E+00
 DFT| XC density smoothing                                                  NONE
 DFT| XC derivatives                                                          PW

 FUNCTIONAL| BECKE88:
 FUNCTIONAL| A. Becke, Phys. Rev. A 38, 3098 (1988) {LDA version}               
 FUNCTIONAL| LYP:
 FUNCTIONAL| C. Lee, W. Yang, R.G. Parr, Phys. Rev. B, 37, 785 (1988) {LDA versi
 FUNCTIONAL| on}                                                                
 FUNCTIONAL| VWN:
 FUNCTIONAL| S. H. Vosko, L. Wilk and M. Nusair, Can. J. Phys. 58, 1200 (1980) {
 FUNCTIONAL| LDA version}                                                       
 FUNCTIONAL| XALPHA:
 FUNCTIONAL| Dirac/Slater local exchange; parameter=  0.666 {LDA}               

 vdW POTENTIAL|                                                   Pair Potential
 vdW POTENTIAL|          DFT-D3 (Version 3.1)
 vdW POTENTIAL|          Potential Form: S. Grimme et al, JCP 132: 154104 (2010)
 vdW POTENTIAL|          Zero Damping
 vdW POTENTIAL|          Cutoff Radius [Bohr]:                             37.79
 vdW POTENTIAL|          s6 Scaling Factor:                               1.0000
 vdW POTENTIAL|          sr6 Scaling Factor:                              1.2610
 vdW POTENTIAL|          s8 Scaling Factor:                               1.7030
 vdW POTENTIAL|          Cutoff for CN calculation:                   0.1000E-05

 QS| Method:                                                                GAPW
 QS| Density plane wave grid type                        NON-SPHERICAL FULLSPACE
 QS| Number of grid levels:                                                    4
 QS| Density cutoff [a.u.]:                                                200.0
 QS| Multi grid cutoff [a.u.]: 1) grid level                               200.0
 QS|                           2) grid level                                66.7
 QS|                           3) grid level                                22.2
 QS|                           4) grid level                                 7.4
 QS| Grid level progression factor:                                          3.0
 QS| Relative density cutoff [a.u.]:                                        30.0
 QS| Interaction thresholds: eps_pgf_orb:                                1.0E-07
 QS|                         eps_filter_matrix:                          0.0E+00
 QS|                         eps_core_charge:                            1.0E-16
 QS|                         eps_rho_gspace:                             1.0E-14
 QS|                         eps_rho_rspace:                             1.0E-14
 QS|                         eps_gvg_rspace:                             1.0E-07
 QS|                         eps_ppl:                                    1.0E-02
 QS|                         eps_ppnl:                                   1.0E-09
 QS| GAPW|      One center basis extended with primitives (small:s)
 QS| GAPW|                   eps_fit:                                    1.0E-04
 QS| GAPW|                   eps_iso:                                    1.0E-12
 QS| GAPW|                   eps_svd:                                    1.0E-08
 QS| GAPW|                   eps_cpc:                                    1.0E-14
 QS| GAPW|   atom-r-grid: quadrature:                                     GC_LOG
 QS| GAPW|      atom-s-grid:  max l :                                          6
 QS| GAPW|      max_l_rho0 :                                                   4


 ATOMIC KIND INFORMATION

  1. Atomic kind: n                                     Number of atoms:       2

     Orbital Basis Set                                        Ahlrichs-def2-TZVP

       Number of orbital shell sets:                                          11
       Number of orbital shells:                                              11
       Number of primitive Cartesian functions:                               20
       Number of Cartesian basis functions:                                   36
       Number of spherical basis functions:                                   31
       Norm type:                                                              2

       Normalised Cartesian orbitals:

                        Set   Shell   Orbital            Exponent    Coefficient

                          1       1    1s            19730.800647       0.695604
                                                      2957.895874       1.298610
                                                       673.221336       2.219088
                                                       190.682495       3.463661
                                                        62.295442       4.696756
                                                        22.654161       4.952251

                          2       1    1s                8.979148       2.388068
                                                         3.686300       0.733788

                          3       1    1s                0.846601       0.629027

                          4       1    1s                0.336471       0.314863

                          5       1    1s                0.136477       0.160031

                          6       1    1px              49.200381       2.126481
                                                        11.346791       2.327937
                                                         3.427397       2.048573
                                                         1.178553       1.260732
                          6       1    1py              49.200381       2.126481
                                                        11.346791       2.327937
                                                         3.427397       2.048573
                                                         1.178553       1.260732
                          6       1    1pz              49.200381       2.126481
                                                        11.346791       2.327937
                                                         3.427397       2.048573
                                                         1.178553       1.260732

                          7       1    1px               0.416422       0.476823
                          7       1    1py               0.416422       0.476823
                          7       1    1pz               0.416422       0.476823

                          8       1    1px               0.142608       0.124917
                          8       1    1py               0.142608       0.124917
                          8       1    1pz               0.142608       0.124917

                          9       1    1dx2              1.654000       3.970513
                          9       1    1dxy              1.654000       6.877130
                          9       1    1dxz              1.654000       6.877130
                          9       1    1dy2              1.654000       3.970513
                          9       1    1dyz              1.654000       6.877130
                          9       1    1dz2              1.654000       3.970513

                         10       1    1dx2              0.469000       0.437484
                         10       1    1dxy              0.469000       0.757744
                         10       1    1dxz              0.469000       0.757744
                         10       1    1dy2              0.469000       0.437484
                         10       1    1dyz              0.469000       0.757744
                         10       1    1dz2              0.469000       0.437484

                         11       1    1fx3              1.093000       1.798249
                         11       1    1fx2y             1.093000       4.021007
                         11       1    1fx2z             1.093000       4.021007
                         11       1    1fxy2             1.093000       4.021007
                         11       1    1fxyz             1.093000       6.964588
                         11       1    1fxz2             1.093000       4.021007
                         11       1    1fy3              1.093000       1.798249
                         11       1    1fy2z             1.093000       4.021007
                         11       1    1fyz2             1.093000       4.021007
                         11       1    1fz3              1.093000       1.798249

       Atomic covalent radius [Angstrom]:                                  0.750

       Atomic van der Waals radius [Angstrom]:                             1.550

     The atoms of this atomic kind are PAW atoms (GAPW):
       Hard Gaussian function radius:                                      1.400
       Rho0 radius:                                                        1.400
       Maximum GTO radius used for PAW projector construction:            24.566

     GAPW Soft Basis Set                                 Ahlrichs-def2-TZVP_soft

       Number of orbital shell sets:                                          11
       Number of orbital shells:                                              11
       Number of primitive Cartesian functions:                               11
       Number of Cartesian basis functions:                                   36
       Number of spherical basis functions:                                   31
       Norm type:                                                              2

       Normalised Cartesian orbitals:

                        Set   Shell   Orbital            Exponent    Coefficient

                          1       1    1s         

                          2       1    1s                3.686300       0.733788

                          3       1    1s                0.846601       0.629027

                          4       1    1s                0.336471       0.314863

                          5       1    1s                0.136477       0.160031

                          6       1    1px               3.427397       2.048573
                                                         1.178553       1.260732
                          6       1    1py               3.427397       2.048573
                                                         1.178553       1.260732
                          6       1    1pz               3.427397       2.048573
                                                         1.178553       1.260732

                          7       1    1px               0.416422       0.476823
                          7       1    1py               0.416422       0.476823
                          7       1    1pz               0.416422       0.476823

                          8       1    1px               0.142608       0.124917
                          8       1    1py               0.142608       0.124917
                          8       1    1pz               0.142608       0.124917

                          9       1    1dx2              1.654000       3.970513
                          9       1    1dxy              1.654000       6.877130
                          9       1    1dxz              1.654000       6.877130
                          9       1    1dy2              1.654000       3.970513
                          9       1    1dyz              1.654000       6.877130
                          9       1    1dz2              1.654000       3.970513

                         10       1    1dx2              0.469000       0.437484
                         10       1    1dxy              0.469000       0.757744
                         10       1    1dxz              0.469000       0.757744
                         10       1    1dy2              0.469000       0.437484
                         10       1    1dyz              0.469000       0.757744
                         10       1    1dz2              0.469000       0.437484

                         11       1    1fx3              1.093000       1.798249
                         11       1    1fx2y             1.093000       4.021007
                         11       1    1fx2z             1.093000       4.021007
                         11       1    1fxy2             1.093000       4.021007
                         11       1    1fxyz             1.093000       6.964588
                         11       1    1fxz2             1.093000       4.021007
                         11       1    1fy3              1.093000       1.798249
                         11       1    1fy2z             1.093000       4.021007
                         11       1    1fyz2             1.093000       4.021007
                         11       1    1fz3              1.093000       1.798249

     AE Potential information for                                            ALL

       Description:                                       All-electron potential
                                          Krack, Parrinello, PCCP 2, 2105 (2000)

       Gaussian exponent of the core charge distribution:               5.979100
       Electronic configuration (s p d ...):                           4   3   0

  2. Atomic kind: c                                     Number of atoms:       4

     Orbital Basis Set                                        Ahlrichs-def2-TZVP

       Number of orbital shell sets:                                          11
       Number of orbital shells:                                              11
       Number of primitive Cartesian functions:                               20
       Number of Cartesian basis functions:                                   36
       Number of spherical basis functions:                                   31
       Norm type:                                                              2

       Normalised Cartesian orbitals:

                        Set   Shell   Orbital            Exponent    Coefficient

                          1       1    1s            13575.349682       0.543591
                                                      2035.233368       1.014554
                                                       463.225624       1.731573
                                                       131.200196       2.691038
                                                        42.853016       3.604455
                                                        15.584186       3.702556

                          2       1    1s                6.206714       1.838354
                                                         2.576490       0.544758

                          3       1    1s                0.576963       0.471815

                          4       1    1s                0.229728       0.236494

                          5       1    1s                0.095164       0.122114

                          6       1    1px              34.697232       1.359665
                                                         7.958262       1.451259
                                                         2.378083       1.270923
                                                         0.814332       0.802572
                          6       1    1py              34.697232       1.359665
                                                         7.958262       1.451259
                                                         2.378083       1.270923
                                                         0.814332       0.802572
                          6       1    1pz              34.697232       1.359665
                                                         7.958262       1.451259
                                                         2.378083       1.270923
                                                         0.814332       0.802572

                          7       1    1px               0.288875       0.301876
                          7       1    1py               0.288875       0.301876
                          7       1    1pz               0.288875       0.301876

                          8       1    1px               0.100568       0.080727
                          8       1    1py               0.100568       0.080727
                          8       1    1pz               0.100568       0.080727

                          9       1    1dx2              1.097000       1.935401
                          9       1    1dxy              1.097000       3.352214
                          9       1    1dxz              1.097000       3.352214
                          9       1    1dy2              1.097000       1.935401
                          9       1    1dyz              1.097000       3.352214
                          9       1    1dz2              1.097000       1.935401

                         10       1    1dx2              0.318000       0.221644
                         10       1    1dxy              0.318000       0.383899
                         10       1    1dxz              0.318000       0.383899
                         10       1    1dy2              0.318000       0.221644
                         10       1    1dyz              0.318000       0.383899
                         10       1    1dz2              0.318000       0.221644

                         11       1    1fx3              0.761000       0.796288
                         11       1    1fx2y             0.761000       1.780553
                         11       1    1fx2z             0.761000       1.780553
                         11       1    1fxy2             0.761000       1.780553
                         11       1    1fxyz             0.761000       3.084008
                         11       1    1fxz2             0.761000       1.780553
                         11       1    1fy3              0.761000       0.796288
                         11       1    1fy2z             0.761000       1.780553
                         11       1    1fyz2             0.761000       1.780553
                         11       1    1fz3              0.761000       0.796288

       Atomic covalent radius [Angstrom]:                                  0.770

       Atomic van der Waals radius [Angstrom]:                             1.700

     The atoms of this atomic kind are PAW atoms (GAPW):
       Hard Gaussian function radius:                                      1.520
       Rho0 radius:                                                        1.520
       Maximum GTO radius used for PAW projector construction:            24.566

     GAPW Soft Basis Set                                 Ahlrichs-def2-TZVP_soft

       Number of orbital shell sets:                                          11
       Number of orbital shells:                                              11
       Number of primitive Cartesian functions:                               11
       Number of Cartesian basis functions:                                   36
       Number of spherical basis functions:                                   31
       Norm type:                                                              2

       Normalised Cartesian orbitals:

                        Set   Shell   Orbital            Exponent    Coefficient

                          1       1    1s         

                          2       1    1s                2.576490       0.544758

                          3       1    1s                0.576963       0.471815

                          4       1    1s                0.229728       0.236494

                          5       1    1s                0.095164       0.122114

                          6       1    1px               2.378083       1.270923
                                                         0.814332       0.802572
                          6       1    1py               2.378083       1.270923
                                                         0.814332       0.802572
                          6       1    1pz               2.378083       1.270923
                                                         0.814332       0.802572

                          7       1    1px               0.288875       0.301876
                          7       1    1py               0.288875       0.301876
                          7       1    1pz               0.288875       0.301876

                          8       1    1px               0.100568       0.080727
                          8       1    1py               0.100568       0.080727
                          8       1    1pz               0.100568       0.080727

                          9       1    1dx2              1.097000       1.935401
                          9       1    1dxy              1.097000       3.352214
                          9       1    1dxz              1.097000       3.352214
                          9       1    1dy2              1.097000       1.935401
                          9       1    1dyz              1.097000       3.352214
                          9       1    1dz2              1.097000       1.935401

                         10       1    1dx2              0.318000       0.221644
                         10       1    1dxy              0.318000       0.383899
                         10       1    1dxz              0.318000       0.383899
                         10       1    1dy2              0.318000       0.221644
                         10       1    1dyz              0.318000       0.383899
                         10       1    1dz2              0.318000       0.221644

                         11       1    1fx3              0.761000       0.796288
                         11       1    1fx2y             0.761000       1.780553
                         11       1    1fx2z             0.761000       1.780553
                         11       1    1fxy2             0.761000       1.780553
                         11       1    1fxyz             0.761000       3.084008
                         11       1    1fxz2             0.761000       1.780553
                         11       1    1fy3              0.761000       0.796288
                         11       1    1fy2z             0.761000       1.780553
                         11       1    1fyz2             0.761000       1.780553
                         11       1    1fz3              0.761000       0.796288

     AE Potential information for                                            ALL

       Description:                                       All-electron potential
                                          Krack, Parrinello, PCCP 2, 2105 (2000)

       Gaussian exponent of the core charge distribution:               4.109048
       Electronic configuration (s p d ...):                           4   2   0

  3. Atomic kind: h                                     Number of atoms:       4

     Orbital Basis Set                                        Ahlrichs-def2-TZVP

       Number of orbital shell sets:                                           4
       Number of orbital shells:                                               4
       Number of primitive Cartesian functions:                                6
       Number of Cartesian basis functions:                                    6
       Number of spherical basis functions:                                    6
       Norm type:                                                              2

       Normalised Cartesian orbitals:

                        Set   Shell   Orbital            Exponent    Coefficient

                          1       1    1s               34.061341       0.255630
                                                         5.123575       0.461360
                                                         1.164663       0.681121

                          2       1    1s                0.327230       0.308355

                          3       1    1s                0.103072       0.129648

                          4       1    1px               0.800000       1.078456
                          4       1    1py               0.800000       1.078456
                          4       1    1pz               0.800000       1.078456

       Atomic covalent radius [Angstrom]:                                  0.320

       Atomic van der Waals radius [Angstrom]:                             1.090

     The atoms of this atomic kind are PAW atoms (GAPW):
       Hard Gaussian function radius:                                      1.000
       Rho0 radius:                                                        1.000
       Maximum GTO radius used for PAW projector construction:            24.566

     GAPW Soft Basis Set                                 Ahlrichs-def2-TZVP_soft

       Number of orbital shell sets:                                           4
       Number of orbital shells:                                               4
       Number of primitive Cartesian functions:                                5
       Number of Cartesian basis functions:                                    6
       Number of spherical basis functions:                                    6
       Norm type:                                                              2

       Normalised Cartesian orbitals:

                        Set   Shell   Orbital            Exponent    Coefficient

                          1       1    1s                5.123575       0.461360
                                                         1.164663       0.681121

                          2       1    1s                0.327230       0.308355

                          3       1    1s                0.103072       0.129648

                          4       1    1px               0.800000       1.078456
                          4       1    1py               0.800000       1.078456
                          4       1    1pz               0.800000       1.078456

     AE Potential information for                                            ALL

       Description:                                       All-electron potential
                                          Krack, Parrinello, PCCP 2, 2105 (2000)

       Gaussian exponent of the core charge distribution:              12.500000
       Electronic configuration (s p d ...):                           1   0   0


 MOLECULE KIND INFORMATION


 All atoms are their own molecule, skipping detailed information


 TOTAL NUMBERS AND MAXIMUM NUMBERS

  Total number of            - Atomic kinds:                                   3
                             - Atoms:                                         10
                             - Shell sets:                                    82
                             - Shells:                                        82
                             - Primitive Cartesian functions:                144
                             - Cartesian basis functions:                    240
                             - Spherical basis functions:                    210

  Maximum angular momentum of the orbital basis functions:                     3


 MODULE QUICKSTEP: ATOMIC COORDINATES IN ANGSTROM

   Atom Kind Element         X             Y             Z       Z(eff)     Mass
      1    1 n     7      6.993001      8.244459      7.639217   7.0000  14.0067
      2    1 n     7      7.312167      5.712432      6.244846   7.0000  14.0067
      3    2 c     6      7.091914      7.139761      8.259520   6.0000  12.0107
      4    2 c     6      7.306495      5.847201      7.593419   6.0000  12.0107
      5    2 c     6      7.189588      8.220096      6.230004   6.0000  12.0107
      6    2 c     6      7.140449      7.035049      5.674745   6.0000  12.0107
      7    3 h     1      6.533607      7.255132      9.366153   1.0000   1.0079
      8    3 h     1      7.466393      4.712663      7.840324   1.0000   1.0079
      9    3 h     1      7.223280      9.287337      5.762040   1.0000   1.0079
     10    3 h     1      7.295189      7.030094      4.633847   1.0000   1.0079



 SCF PARAMETERS         Density guess:                                   RESTART
                        --------------------------------------------------------
                        max_scf:                                              50
                        max_scf_history:                                       0
                        max_diis:                                              4
                        --------------------------------------------------------
                        eps_scf:                                        1.00E-08
                        eps_scf_history:                                0.00E+00
                        eps_diis:                                       1.00E-01
                        eps_eigval:                                     1.00E-05
                        --------------------------------------------------------
                        level_shift [a.u.]:                             0.000000
                        --------------------------------------------------------
                        Outer loop SCF in use 
                        No variables optimised in outer loop
                        eps_scf                                         1.00E-08
                        max_scf                                              900
                        No outer loop optimization
                        step_size                                       5.00E-01

 PW_GRID| Information for grid number                                          1
 PW_GRID| Grid distributed over                                    16 processors
 PW_GRID| Real space group dimensions                                    16    1
 PW_GRID| the grid is blocked:                                                NO
 PW_GRID| Cutoff [a.u.]                                                    400.0
 PW_GRID| spherical cutoff:                                                   NO
 PW_GRID|   Bounds   1           -120     119                Points:         240
 PW_GRID|   Bounds   2           -120     119                Points:         240
 PW_GRID|   Bounds   3           -120     119                Points:         240
 PW_GRID| Volume element (a.u.^3)  0.1340E-02     Volume (a.u.^3)     18517.4301
 PW_GRID| Grid span                                                    FULLSPACE
 PW_GRID|   Distribution                         Average         Max         Min
 PW_GRID|   G-Vectors                           864000.0      864000      864000
 PW_GRID|   G-Rays                                3600.0        3600        3600
 PW_GRID|   Real Space Points                   864000.0      864000      864000

 PW_GRID| Information for grid number                                          2
 PW_GRID| Number of the reference grid                                         1
 PW_GRID| Grid distributed over                                    16 processors
 PW_GRID| Real space group dimensions                                    16    1
 PW_GRID| the grid is blocked:                                                NO
 PW_GRID| Cutoff [a.u.]                                                    200.0
 PW_GRID| spherical cutoff:                                                   NO
 PW_GRID|   Bounds   1            -90      89                Points:         180
 PW_GRID|   Bounds   2            -90      89                Points:         180
 PW_GRID|   Bounds   3            -90      89                Points:         180
 PW_GRID| Volume element (a.u.^3)  0.3175E-02     Volume (a.u.^3)     18517.4301
 PW_GRID| Grid span                                                    FULLSPACE
 PW_GRID|   Distribution                         Average         Max         Min
 PW_GRID|   G-Vectors                           364500.0      364680      364320
 PW_GRID|   G-Rays                                2025.0        2026        2024
 PW_GRID|   Real Space Points                   364500.0      388800      356400

 PW_GRID| Information for grid number                                          3
 PW_GRID| Number of the reference grid                                         2
 PW_GRID| Grid distributed over                                    16 processors
 PW_GRID| Real space group dimensions                                    16    1
 PW_GRID| the grid is blocked:                                                NO
 PW_GRID| Cutoff [a.u.]                                                     66.7
 PW_GRID| spherical cutoff:                                                   NO
 PW_GRID|   Bounds   1            -50      49                Points:         100
 PW_GRID|   Bounds   2            -50      49                Points:         100
 PW_GRID|   Bounds   3            -50      49                Points:         100
 PW_GRID| Volume element (a.u.^3)  0.1852E-01     Volume (a.u.^3)     18517.4301
 PW_GRID| Grid span                                                    FULLSPACE
 PW_GRID|   Distribution                         Average         Max         Min
 PW_GRID|   G-Vectors                            62500.0       62600       62400
 PW_GRID|   G-Rays                                 625.0         626         624
 PW_GRID|   Real Space Points                    62500.0       70000       60000

 PW_GRID| Information for grid number                                          4
 PW_GRID| Number of the reference grid                                         2
 PW_GRID| Grid distributed over                                    16 processors
 PW_GRID| Real space group dimensions                                    16    1
 PW_GRID| the grid is blocked:                                                NO
 PW_GRID| Cutoff [a.u.]                                                     22.2
 PW_GRID| spherical cutoff:                                                   NO
 PW_GRID|   Bounds   1            -30      29                Points:          60
 PW_GRID|   Bounds   2            -30      29                Points:          60
 PW_GRID|   Bounds   3            -30      29                Points:          60
 PW_GRID| Volume element (a.u.^3)  0.8573E-01     Volume (a.u.^3)     18517.4301
 PW_GRID| Grid span                                                    FULLSPACE
 PW_GRID|   Distribution                         Average         Max         Min
 PW_GRID|   G-Vectors                            13500.0       13560       13440
 PW_GRID|   G-Rays                                 225.0         226         224
 PW_GRID|   Real Space Points                    13500.0       14400       10800

 PW_GRID| Information for grid number                                          5
 PW_GRID| Number of the reference grid                                         2
 PW_GRID| Grid distributed over                                    16 processors
 PW_GRID| Real space group dimensions                                    16    1
 PW_GRID| the grid is blocked:                                                NO
 PW_GRID| Cutoff [a.u.]                                                      7.4
 PW_GRID| spherical cutoff:                                                   NO
 PW_GRID|   Bounds   1            -18      17                Points:          36
 PW_GRID|   Bounds   2            -18      17                Points:          36
 PW_GRID|   Bounds   3            -18      17                Points:          36
 PW_GRID| Volume element (a.u.^3)  0.3969         Volume (a.u.^3)     18517.4301
 PW_GRID| Grid span                                                    FULLSPACE
 PW_GRID|   Distribution                         Average         Max         Min
 PW_GRID|   G-Vectors                             2916.0        2952        2880
 PW_GRID|   G-Rays                                  81.0          82          80
 PW_GRID|   Real Space Points                     2916.0        3888        2592

 POISSON| Solver                                          Martyna-Tuckerman (MT)
 POISSON| MT| Alpha                                                        7.000
 POISSON| MT| Relative cutoff                                                2.0
 POISSON| Periodicity                                                       NONE

 RS_GRID| Information for grid number                                          2
 RS_GRID|   Bounds   1            -90      89                Points:         180
 RS_GRID|   Bounds   2            -90      89                Points:         180
 RS_GRID|   Bounds   3            -90      89                Points:         180
 RS_GRID| Real space distribution over                                  4 groups
 RS_GRID| Real space distribution along direction                              2
 RS_GRID| Border size                                                         31
 RS_GRID| Real space distribution over                                  4 groups
 RS_GRID| Real space distribution along direction                              3
 RS_GRID| Border size                                                         31
 RS_GRID|   Distribution                         Average         Max         Min
 RS_GRID|   Planes                                 107.0         107         107
 RS_GRID|   Distribution                         Average         Max         Min
 RS_GRID|   Planes                                 107.0         107         107

 RS_GRID| Information for grid number                                          3
 RS_GRID|   Bounds   1            -50      49                Points:         100
 RS_GRID|   Bounds   2            -50      49                Points:         100
 RS_GRID|   Bounds   3            -50      49                Points:         100
 RS_GRID| Real space fully replicated
 RS_GRID| Group size                                                           1

 RS_GRID| Information for grid number                                          4
 RS_GRID|   Bounds   1            -30      29                Points:          60
 RS_GRID|   Bounds   2            -30      29                Points:          60
 RS_GRID|   Bounds   3            -30      29                Points:          60
 RS_GRID| Real space fully replicated
 RS_GRID| Group size                                                           1

 RS_GRID| Information for grid number                                          5
 RS_GRID|   Bounds   1            -18      17                Points:          36
 RS_GRID|   Bounds   2            -18      17                Points:          36
 RS_GRID|   Bounds   3            -18      17                Points:          36
 RS_GRID| Real space fully replicated
 RS_GRID| Group size                                                           1

  HFX_INFO| Replica ID:                                                        1
  HFX_INFO| FRACTION:                                               0.2000000000
  HFX_INFO| Interaction Potential:                                       COULOMB
  HFX_INFO| EPS_SCHWARZ:                                                 1.0E-10
  HFX_INFO| EPS_SCHWARZ_FORCES                                           1.0E-08
  HFX_INFO| EPS_STORAGE_SCALING:                                         1.0E+00
  HFX_INFO| NBINS:                                                            64
  HFX_INFO| BLOCK_SIZE:                                                        1
  HFX_INFO| Number of periodic shells considered:                           NONE
  HFX_INFO| Number of periodic cells considered:                            NONE


 Number of electrons:                                                         42
 Number of occupied orbitals:                                                 21
 Number of molecular orbitals:                                                21

 Number of orbital functions:                                                210
 Number of independent orbital functions:                                    210

 Extrapolation method: initial_guess


 SCF WAVEFUNCTION OPTIMIZATION

  ----------------------------------- OT ---------------------------------------
  Minimizer      : DIIS                : direct inversion
                                         in the iterative subspace
                                         using   7 DIIS vectors
                                         safer DIIS on
  Preconditioner : FULL_ALL            : diagonalization, state selective
  Precond_solver : DEFAULT
  stepsize       :    0.15000000                  energy_gap     :    0.08000000
  eps_taylor     :   0.10000E-15                  max_taylor     :             4
  ----------------------------------- OT ---------------------------------------

  Step     Update method      Time    Convergence         Total energy    Change
  ------------------------------------------------------------------------------

  HFX_MEM_INFO| Est. max. program size before HFX [MiB]:                     642
  HFX_MEM_INFO| Number of cart. primitive ERI's calculated:           1704299364
  HFX_MEM_INFO| Number of sph. ERI's calculated:                       315015957
  HFX_MEM_INFO| Number of sph. ERI's stored in-core:                   315015957
  HFX_MEM_INFO| Number of sph. ERI's stored on disk:                           0
  HFX_MEM_INFO| Number of sph. ERI's calculated on the fly:                    0
  HFX_MEM_INFO| Total memory consumption ERI's RAM [MiB]:                    933
  HFX_MEM_INFO| Whereof max-vals [MiB]:                                        5
  HFX_MEM_INFO| Total compression factor ERI's RAM:                         2.58
  HFX_MEM_INFO| Total memory consumption ERI's disk [MiB]:                     0
  HFX_MEM_INFO| Total compression factor ERI's disk:                        0.00
  HFX_MEM_INFO| Size of density/Fock matrix [MiB]:                             0
  HFX_MEM_INFO| Size of buffers [MiB]:                                         0
  HFX_MEM_INFO| Est. max. program size after HFX  [MiB]:                     699

     1 OT DIIS     0.15E+00    3.9     0.01225535      -264.0983881869 -2.64E+02
     2 OT DIIS     0.15E+00    0.7     0.00579429      -264.1670076721 -6.86E-02
     3 OT DIIS     0.15E+00    0.7     0.00363898      -264.1822200098 -1.52E-02
     4 OT DIIS     0.15E+00    0.7     0.00066273      -264.1854304503 -3.21E-03
     5 OT DIIS     0.15E+00    0.7     0.00030087      -264.1855370349 -1.07E-04
     6 OT DIIS     0.15E+00    0.7     0.00010961      -264.1855630370 -2.60E-05
     7 OT DIIS     0.15E+00    0.7     0.00004145      -264.1855676538 -4.62E-06
     8 OT DIIS     0.15E+00    0.7     0.00001877      -264.1855682113 -5.58E-07
     9 OT DIIS     0.15E+00    0.7     0.00000516      -264.1855682959 -8.45E-08
    10 OT DIIS     0.15E+00    0.7     0.00000143      -264.1855683076 -1.17E-08
    11 OT DIIS     0.15E+00    0.7     0.00000061      -264.1855683084 -8.47E-10
    12 OT DIIS     0.15E+00    0.7     0.00000027      -264.1855683086 -1.53E-10
    13 OT DIIS     0.15E+00    0.7     0.00000015      -264.1855683086 -3.78E-11
    14 OT DIIS     0.15E+00    0.7     0.00000005      -264.1855683086 -1.26E-11
    15 OT DIIS     0.15E+00    0.7     0.00000002      -264.1855683086 -7.45E-12
    16 OT DIIS     0.15E+00    0.7     0.00000001      -264.1855683086 -1.78E-11
    17 OT DIIS     0.15E+00    0.7     5.5108E-09      -264.1855683087 -3.58E-12

  *** SCF run converged in    17 steps ***


  Electronic density on regular grids:        -30.6586534639       11.3413465361
  Core density on regular grids:               42.0000000000       -0.0000000000
  Hard and soft densities (Lebedev):          -93.6244620204      -82.2831154844
  Total Rho_soft + Rho1_hard - Rho1_soft      -41.9999999999
  Total charge density (r-space):               0.0000000001
  Total Rho_soft + Rho0_soft (g-space):        -0.0000000255

  Overlap energy of the core charge distribution:               0.00001275354135
  Self energy of the core charge distribution:               -217.69203579805162
  Core Hamiltonian energy:                                    -42.23393072940624
  Hartree energy:                                             110.09251369248183
  Exchange-correlation energy:                                -11.12821342687077
  Hartree-Fock Exchange energy:                                -7.03227079282019
  Dispersion energy:                                           -0.00398294647073

  GAPW| Exc from hard and soft atomic rho1:                   -18.54656337099401
  GAPW| local Eh = 1 center integrals:                        -77.64109769006026

  Total energy:                                              -264.18556830865066

  outer SCF iter =    1 RMS gradient =   0.55E-08 energy =       -264.1855683087
  outer SCF loop converged in   1 iterations or   17 steps


 !-----------------------------------------------------------------------------!
                     Mulliken Population Analysis

 #  Atom  Element  Kind  Atomic population                           Net charge
       1     n        1          7.174954                             -0.174954
       2     n        1          7.208295                             -0.208295
       3     c        2          6.067358                             -0.067358
       4     c        2          6.025004                             -0.025004
       5     c        2          6.013780                             -0.013780
       6     c        2          6.035562                             -0.035562
       7     h        3          0.878772                              0.121228
       8     h        3          0.848951                              0.151049
       9     h        3          0.855850                              0.144150
      10     h        3          0.891474                              0.108526
 # Total charge                             42.000000                 -0.000000

 !-----------------------------------------------------------------------------!

 !-----------------------------------------------------------------------------!
                           Hirshfeld Charges

  #Atom  Element  Kind  Ref Charge     Population                    Net charge
      1       n      1       7.000          7.284                        -0.284
      2       n      1       7.000          7.296                        -0.296
      3       c      2       6.000          6.330                        -0.330
      4       c      2       6.000          6.321                        -0.321
      5       c      2       6.000          6.356                        -0.356
      6       c      2       6.000          6.366                        -0.366
      7       h      3       1.000          0.516                         0.484
      8       h      3       1.000          0.500                         0.500
      9       h      3       1.000          0.503                         0.497
     10       h      3       1.000          0.517                         0.483

  Total Charge                                                            0.012
 !-----------------------------------------------------------------------------!

 *******************************************************************************
 **                                                                           **
 **         ######## #######   #######   ######## #######  ########           **
 **            ##    ##     ## ##     ## ##       ##   ##     ##              **
 **            ##    ##     ## ##     ## ######   #######     ##              **
 **            ##    ##     ## ##     ## ##       ##          ##              **
 **            ##    #######   #######   ##       ##          ##              **
 **                                                                           **
 *******************************************************************************
 KERNEL|                                                                    FULL
 FUNCTIONAL| BECKE88:
 FUNCTIONAL| A. Becke, Phys. Rev. A 38, 3098 (1988) {LDA version}               
 FUNCTIONAL| LYP:
 FUNCTIONAL| C. Lee, W. Yang, R.G. Parr, Phys. Rev. B, 37, 785 (1988) {LDA versi
 FUNCTIONAL| on}                                                                
 FUNCTIONAL| VWN:
 FUNCTIONAL| S. H. Vosko, L. Wilk and M. Nusair, Can. J. Phys. 58, 1200 (1980) {
 FUNCTIONAL| LDA version}                                                       
 FUNCTIONAL| XALPHA:
 FUNCTIONAL| Dirac/Slater local exchange; parameter=  0.666 {LDA}               
 KERNEL|                                                          Exact Exchange
 KERNEL| Spin symmetry of excitations                                    Singlet
 TDDFPT| Number of states calculated                                           9
 TDDFPT| Number of Davidson iterations                                       100
 TDDFPT| Davidson iteration convergence                                0.367E-09
 TDDFPT| Max. number of Krylov space vectors                                5000
 TDDFPT| Molecular Orbitals:        Spin       AOs       Occ      Virt     Total
 TDDFPT|                               1       210        21       189       210
 
 -------------------------------------------------------------------------------
 -                            TDDFPT Initial Guess                             -
 -------------------------------------------------------------------------------
          State         Occupied      ->      Virtual          Excitation
          number         orbital              orbital          energy (eV)
 -------------------------------------------------------------------------------
             1               21                   22              5.19527
             2               20                   22              6.01479
             3               21                   23              6.15323
             4               19                   22              6.90318
             5               20                   23              6.97274
             6               18                   22              7.05429
             7               19                   23              7.86114
             8               17                   22              7.88549
             9               18                   23              8.01225

      Number of active states:                                       3969
 -------------------------------------------------------------------------------
 
 -------------------------------------------------------------------------------
 -                      TDDFPT WAVEFUNCTION OPTIMIZATION                       -
 -------------------------------------------------------------------------------

          Step            Time         Convergence           Conv. states
 -------------------------------------------------------------------------------

    State    Exc. energy (eV)      Convergence (eV)
        1       4.0881740            -1.1071E+00
        2       5.0151664            -9.9962E-01
        3       5.6321982            -5.2103E-01
        4       5.7262273            -1.1770E+00
        5       6.4907496            -4.8199E-01
        6       6.6004723            -4.5382E-01
        7       7.6209735            -2.4016E-01
        8       9.3409428             1.4555E+00
        9      10.1686167             2.1564E+00

             1             7.2          7.9245E-02                      0

    State    Exc. energy (eV)      Convergence (eV)
        1       3.9983029            -8.9871E-02
        2       4.9287172            -8.6449E-02
        3       5.4044094            -2.2779E-01
        4       5.6043214            -1.2191E-01
        5       6.3775959            -1.1315E-01
        6       6.5287384            -7.1734E-02
        7       6.7433094            -8.7766E-01
        8       7.9674526            -1.3735E+00
        9       8.1183123            -2.0503E+00

             2             7.2          7.5347E-02                      0

    State    Exc. energy (eV)      Convergence (eV)
        1       3.9937486            -4.5543E-03
        2       4.9203995            -8.3178E-03
        3       5.3961680            -8.2414E-03
        4       5.5985592            -5.7623E-03
        5       6.3643915            -1.3204E-02
        6       6.5238973            -4.8411E-03
        7       6.7316877            -1.1622E-02
        8       7.3967512            -5.7070E-01
        9       7.6598858            -4.5843E-01

             3             7.2          2.0973E-02                      0

    State    Exc. energy (eV)      Convergence (eV)
        1       3.9935642            -1.8444E-04
        2       4.9202248            -1.7465E-04
        3       5.3959122            -2.5588E-04
        4       5.5983894            -1.6978E-04
        5       6.3637988            -5.9275E-04
        6       6.5236169            -2.8036E-04
        7       6.7306261            -1.0616E-03
        8       7.3138204            -8.2931E-02
        9       7.4898722            -1.7001E-01

             4             7.2          6.2479E-03                      0

    State    Exc. energy (eV)      Convergence (eV)
        1       3.9935621            -2.0183E-06
        2       4.9202215            -3.3373E-06
        3       5.3959064            -5.7565E-06
        4       5.5983797            -9.6592E-06
        5       6.3637626            -3.6188E-05
        6       6.5235976            -1.9342E-05
        7       6.7305547            -7.1372E-05
        8       7.2843059            -2.9515E-02
        9       7.3883835            -1.0149E-01

             5             7.2          3.7296E-03                      0

    State    Exc. energy (eV)      Convergence (eV)
        1       3.9935621            -3.6282E-08
        2       4.9202214            -7.3691E-08
        3       5.3959063            -1.3611E-07
        4       5.5983795            -2.6732E-07
        5       6.3637611            -1.4283E-06
        6       6.5235966            -1.0208E-06
        7       6.7305514            -3.2625E-06
        8       7.2775535            -6.7523E-03
        9       7.3661813            -2.2202E-02

             6             7.2          8.1592E-04                      0

    State    Exc. energy (eV)      Convergence (eV)
        1       3.9935621            -3.4254E-10
        2       4.9202214            -9.6503E-10
        3       5.3959063            -2.7384E-09
        4       5.5983795            -5.3187E-09
        5       6.3637611            -3.9346E-08
        6       6.5235965            -3.2692E-08
        7       6.7305513            -1.0733E-07
        8       7.2770483            -5.0520E-04
        9       7.3638070            -2.3743E-03

             7             7.2          8.7253E-05                      4

    State    Exc. energy (eV)      Convergence (eV)
        1       3.9935621            -2.0989E-12
        2       4.9202214            -9.7346E-12
        3       5.3959063            -4.1826E-11
        4       5.5983795            -9.4471E-11
        5       6.3637611            -1.0760E-09
        6       6.5235965            -6.8052E-10
        7       6.7305513            -3.7654E-09
        8       7.2770101            -3.8270E-05
        9       7.3635619            -2.4506E-04

             8             7.1          9.0057E-06                      7

    State    Exc. energy (eV)      Convergence (eV)
        1       3.9935621            -1.5105E-14
        2       4.9202214            -1.1707E-13
        3       5.3959063            -5.4304E-13
        4       5.5983795            -1.3391E-12
        5       6.3637611            -1.6245E-11
        6       6.5235965            -9.4205E-12
        7       6.7305513            -5.2345E-11
        8       7.2770087            -1.3838E-06
        9       7.3635517            -1.0212E-05

             9             7.1          3.7530E-07                      7

    State    Exc. energy (eV)      Convergence (eV)
        1       3.9935621             1.5105E-15
        2       4.9202214             3.7763E-15
        3       5.3959063            -3.7763E-15
        4       5.5983795            -1.3595E-14
        5       6.3637611            -1.4048E-13
        6       6.5235965            -8.3079E-14
        7       6.7305513            -6.0195E-13
        8       7.2770087            -2.0654E-08
        9       7.3635515            -1.6391E-07

            10             7.1          6.0236E-09                      7

    State    Exc. energy (eV)      Convergence (eV)
        1       3.9935621             3.0211E-15
        2       4.9202214             2.2658E-15
        3       5.3959063            -4.5316E-15
        4       5.5983795            -3.0211E-15
        5       6.3637611             4.5316E-15
        6       6.5235965             3.7763E-15
        7       6.7305513             1.5105E-15
        8       7.2770087            -3.3997E-10
        9       7.3635515            -3.1443E-09

            11             7.1          1.1555E-10                      9
 ------------------------- Restart Davidson iterations -------------------------

    State    Exc. energy (eV)      Convergence (eV)
        1       3.9935621            -3.7763E-15
        2       4.9202214             0.0000E+00
        3       5.3959063            -3.7763E-15
        4       5.5983795             3.0211E-15
        5       6.3637611            -9.0632E-15
        6       6.5235965            -6.7974E-15
        7       6.7305513            -5.2869E-15
        8       7.2770087            -1.3595E-14
        9       7.3635515             0.0000E+00

            12             7.1          4.9960E-16                      9
 
 -------------------------------------------------------------------------------
 -  TDDFPT run converged in 12 iteration(s) 
 -------------------------------------------------------------------------------

 R-TDDFPT states of multiplicity 1
 Transition dipoles calculated using length formulation

         State    Excitation        Transition dipole (a.u.)        Oscillator
         number   energy (eV)       x           y           z     strength (a.u.)
         ------------------------------------------------------------------------
 TDDFPT|      1       3.99356   2.4203E-01 -9.6329E-02  1.7723E-01   9.71225E-03
 TDDFPT|      2       4.92022   9.6265E-02  1.7767E-01  4.9739E-02   5.22056E-03
 TDDFPT|      3       5.39591  -7.0448E-02 -4.5534E-01  6.5296E-01   8.44275E-02
 TDDFPT|      4       5.59838  -1.0144E-01  9.4354E-02 -2.0757E-01   8.54182E-03
 TDDFPT|      5       6.36376  -2.0840E-02 -1.1944E-01  6.6020E-02   2.97134E-03
 TDDFPT|      6       6.52360  -1.0079E-01 -2.3240E-01 -1.1105E-01   1.22266E-02
 TDDFPT|      7       6.73055   1.9594E-03  5.0440E-01  1.7754E-01   4.71518E-02
 TDDFPT|      8       7.27701   1.1272E-01  7.7843E-02  1.9102E-01   9.85139E-03
 TDDFPT|      9       7.36355  -9.9799E-02 -7.7488E-02 -5.9432E-01   6.66010E-02

 TDDFPT : CheckSum  =  0.673773E+00
 
 -------------------------------------------------------------------------------
 -                            Excitation analysis                              -
 -------------------------------------------------------------------------------
        State             Occupied              Virtual             Excitation
        number             orbital              orbital             amplitude
 -------------------------------------------------------------------------------
             1   3.99356 eV
                                21                   22               0.966088
                                20                   22               0.236898
             2   4.92022 eV
                                21                   23              -0.948522
                                20                   23              -0.290897
                                19                   22               0.068698
             3   5.39591 eV
                                20                   22              -0.864778
                                18                   23              -0.356245
                                19                   22               0.234197
                                21                   22               0.186271
                                18                   22              -0.069391
                                20                   23               0.059102
                                19                   23               0.055037
             4   5.59838 eV
                                19                   22               0.957163
                                20                   22               0.180869
                                18                   23               0.136445
                                18                   22               0.113150
                                21                   23               0.074574
             5   6.36376 eV
                                17                   22               0.722394
                                18                   22               0.493060
                                19                   23               0.368870
                                20                   23              -0.264156
                                21                   23               0.062151
                                20                   22              -0.061702
             6   6.52360 eV
                                19                   23               0.714633
                                17                   22              -0.593469
                                20                   23              -0.300283
                                18                   22               0.155867
                                21                   23               0.062751
                                19                   22              -0.057662
                                18                   23               0.054456
             7   6.73055 eV
                                20                   23               0.709189
                                19                   23               0.546836
                                18                   22              -0.250605
                                21                   23              -0.195512
                                17                   22               0.188288
                                20                   24               0.093247
                                20                   22               0.087307
                                21                   24              -0.084160
             8   7.27701 eV
                                21                   24              -0.821019
                                18                   23               0.314091
                                18                   22               0.259383
                                17                   23               0.205529
                                21                   25               0.144858
                                19                   23              -0.126788
                                17                   22              -0.115053
                                20                   22              -0.109285
                                20                   23               0.083655
                                21                   29              -0.080281
                                20                   24               0.065839
                                21                   23              -0.062087
                                16                   22              -0.061151
                                21                   26               0.057070
                                19                   22              -0.053102
             9   7.36355 eV
                                17                   23              -0.569927
                                21                   24              -0.515557
                                18                   23              -0.365425
                                21                   25              -0.263531
                                18                   22              -0.251916
                                20                   23              -0.194189
                                16                   22               0.153168
                                17                   22               0.120280
                                20                   22               0.115405
                                19                   23               0.091927
                                21                   27              -0.090464
                                21                   26              -0.069590
                                21                   23               0.063969
                                19                   26               0.054835
 -------------------------------------------------------------------------------
 
 -------------------------------------------------------------------------------
 -                            Natural Orbital analysis                         -
 -------------------------------------------------------------------------------
   STATE NR.      1             3.99356 eV
     Particle-Hole state: 1   Spin:1     Eigenvalue: 0.99317   Sum Eigv: 0.99317
   STATE NR.      2             4.92022 eV
     Particle-Hole state: 1   Spin:1     Eigenvalue: 0.98796   Sum Eigv: 0.98796
   STATE NR.      3             5.39591 eV
     Particle-Hole state: 1   Spin:1     Eigenvalue: 0.84729   Sum Eigv: 0.84729
     Particle-Hole state: 2   Spin:1     Eigenvalue: 0.13701   Sum Eigv: 0.98430
   STATE NR.      4             5.59838 eV
     Particle-Hole state: 1   Spin:1     Eigenvalue: 0.96845   Sum Eigv: 0.96845
     Particle-Hole state: 2   Spin:1     Eigenvalue: 0.02686   Sum Eigv: 0.99531
   STATE NR.      5             6.36376 eV
     Particle-Hole state: 1   Spin:1     Eigenvalue: 0.78032   Sum Eigv: 0.78032
     Particle-Hole state: 2   Spin:1     Eigenvalue: 0.21072   Sum Eigv: 0.99104
   STATE NR.      6             6.52360 eV
     Particle-Hole state: 1   Spin:1     Eigenvalue: 0.61256   Sum Eigv: 0.61256
     Particle-Hole state: 2   Spin:1     Eigenvalue: 0.38033   Sum Eigv: 0.99289
   STATE NR.      7             6.73055 eV
     Particle-Hole state: 1   Spin:1     Eigenvalue: 0.86330   Sum Eigv: 0.86330
     Particle-Hole state: 2   Spin:1     Eigenvalue: 0.10169   Sum Eigv: 0.96499
[...]
 # MPI messages exchanged                  147072
 MPI messages size (bytes):
  total size                         1.131165E+09
  min size                           0.000000E+00
  max size                          31.744000E+03
  average size                       7.691232E+03
 MPI breakdown and total messages size (bytes):
             size <=      128               81951                        0
       128 < size <=     8192               11865                 81333000
      8192 < size <=    32768               53256               1049832000
     32768 < size <=   131072                   0                        0
    131072 < size <=  4194304                   0                        0
   4194304 < size <= 16777216                   0                        0
  16777216 < size                               0                        0
 -------------------------------------------------------------------------------
 -                                                                             -
 -                      DBCSR MESSAGE PASSING PERFORMANCE                      -
 -                                                                             -
 -------------------------------------------------------------------------------
 ROUTINE             CALLS      AVE VOLUME [Bytes]
 MP_Bcast               28                     12.
 MP_Allreduce         6546                      8.
 MP_Alltoall         25833                   2779.
 MP_ISend            24508                   3615.
 MP_IRecv            24508                   3333.
 -------------------------------------------------------------------------------

 -------------------------------------------------------------------------------
 -                                                                             -
 -                                DBM STATISTICS                               -
 -                                                                             -
 -------------------------------------------------------------------------------
    M  x    N  x    K                                          COUNT     PERCENT
 -------------------------------------------------------------------------------

 -------------------------------------------------------------------------------
 -                                                                             -
 -                                GRID STATISTICS                              -
 -                                                                             -
 -------------------------------------------------------------------------------
 LP    KERNEL             BACKEND                              COUNT     PERCENT
 1     collocate ortho    CPU                                 239292      15.48%
 1     integrate ortho    CPU                                 197695      12.79%
 2     collocate ortho    CPU                                 194820      12.60%
 0     collocate ortho    CPU                                 165648      10.71%
 2     integrate ortho    CPU                                 165049      10.68%
 0     integrate ortho    CPU                                 132356       8.56%
 3     collocate ortho    CPU                                 130968       8.47%
 3     integrate ortho    CPU                                 112286       7.26%
 4     collocate ortho    CPU                                  56304       3.64%
 4     integrate ortho    CPU                                  50124       3.24%
 4     collocate general  CPU                                  19776       1.28%
 5     collocate ortho    CPU                                  17136       1.11%
 5     integrate ortho    CPU                                  15900       1.03%
 4     integrate general  CPU                                  15648       1.01%
 2     collocate general  CPU                                  13184       0.85%
 2     integrate general  CPU                                  10432       0.67%
 6     collocate ortho    CPU                                   4284       0.28%
 6     integrate ortho    CPU                                   4095       0.26%
 5     integrate general  CPU                                    384       0.02%
 3     integrate general  CPU                                    256       0.02%
 7     integrate ortho    CPU                                    168       0.01%
 0     collocate general  CPU                                    160       0.01%
 0     integrate general  CPU                                    160       0.01%
 -------------------------------------------------------------------------------

 MEMORY| Estimated peak process memory [MiB]                                1284

 -------------------------------------------------------------------------------
 ----                             MULTIGRID INFO                            ----
 -------------------------------------------------------------------------------
 count for grid        1:         109547          cutoff [a.u.]          200.00
 count for grid        2:          22507          cutoff [a.u.]           66.67
 count for grid        3:           8627          cutoff [a.u.]           22.22
 count for grid        4:           1858          cutoff [a.u.]            7.41
 total gridlevel count  :         142539

 -------------------------------------------------------------------------------
 -                                                                             -
 -                         MESSAGE PASSING PERFORMANCE                         -
 -                                                                             -
 -------------------------------------------------------------------------------

 ROUTINE             CALLS      AVE VOLUME [Bytes]
 MP_Group                5
 MP_Bcast             4829                 972736.
 MP_Allreduce        15138                 139533.
 MP_Sync              1448
 MP_Alltoall          4116               15015482.
 MP_SendRecv          9240                 233907.
 MP_ISendRecv        16110                 124342.
 MP_Wait             33532
 MP_comm_split          50
 MP_ISend            15007                 822480.
 MP_IRecv            15174                 813121.
 -------------------------------------------------------------------------------


 -------------------------------------------------------------------------------
 -                                                                             -
 -                           R E F E R E N C E S                               -
 -                                                                             -
 -------------------------------------------------------------------------------
 
 CP2K version 2024.1 (Development Version), the CP2K developers group (2024).
 CP2K is freely available from https://www.cp2k.org/ .

 Kuehne,Thomas D.; Iannuzzi,Marcella; Del Ben,Mauro;
 Rybkin,Vladimir V.; Seewald,Patrick; Stein,Frederick; Laino,Teodoro;
 Khaliullin,Rustam Z.; Schuett,Ole; Schiffmann,Florian; Golze,Dorothea;
 Wilhelm,Jan; Chulkov,Sergey; Bani-Hashemian,Mohammad Hossein;
 Weber,Valery; Borstnik,Urban; Taillefumier,Mathieu;
 Jakobovits,Alice Shoshana; Lazzaro,Alfio; Pabst,Hans; Mueller,Tiziano;
 Schade,Robert; Guidon,Manuel; Andermatt,Samuel; Holmberg,Nico;
 Schenter,Gregory K.; Hehn,Anna; Bussy,Augustin; Belleflamme,Fabian;
 Tabacchi,Gloria; Gloess,Andreas; Lass,Michael; Bethune,Iain;
 Mundy,Christopher J.; Plessl,Christian; Watkins,Matt;
 VandeVondele,Joost; Krack,Matthias; Hutter,Juerg. 
 The Journal of Chemical Physics, 152 (19), (2020). 
 CP2K: An electronic structure and molecular dynamics software package -
 Quickstep: Efficient and accurate electronic structure calculations.
 https://doi.org/10.1063/5.0007045

 Goerigk, Lars; Hansen, Andreas; Bauer, Christoph; Ehrlich, Stephan;
 Najibi, Asim; Grimme, Stefan. , 19 (48), (2017). 
 A look at the density functional theory zoo with the advanced GMTKN55 database
 for general main group thermochemistry, kinetics and noncovalent interactions.
 https://doi.org/10.1039/C7CP04913G

 Schuett, Ole; Messmer, Peter; Hutter, Juerg; VandeVondele, Joost. 
 Electronic Structure Calculations on Graphics Processing Units, John
 Wiley & Sons, Ltd, 173-190 (2016). 
 GPU-Accelerated Sparse Matrix-Matrix Multiplication for
 Linear Scaling Density Functional Theory.
 https://doi.org/10.1002/9781118670712.ch8

 Heinecke, A; Henry, G; Hutchinson, M; Pabst, H. 
 Proceedings of Intl. Supercomputing Conference, 981-991 (2016). 
 LIBXSMM: Accelerating Small Matrix Multiplications
 by Runtime Code Generation.
 https://doi.org/10.1109/SC.2016.83

 Borstnik, U; VandeVondele, J; Weber, V; Hutter, J. 
 PARALLEL COMPUTING, 40 (5-6), 47-58 (2014). 
 Sparse matrix multiplication: The distributed block-compressed sparse
 row library.
 https://doi.org/10.1016/j.parco.2014.03.012

 Hutter, J; Iannuzzi, M; Schiffmann, F; VandeVondele, J. 
 WIREs Comput Mol Sci., 4 (1), 15-25 (2014). 
 CP2K: atomistic simulations of condensed matter systems.
 https://doi.org/10.1002/wcms.1159

 Grimme, S; Ehrlich, S; Goerigk, L. 
 JOURNAL OF COMPUTATIONAL CHEMISTRY, 32, 1456 (2011). 
 Effect of the damping function in dispersion corrected density functional theory.
 https://doi.org/10.1002/jcc.21759

 Grimme, S; Antony, J; Ehrlich, S; Krieg, H. 
 JOURNAL OF CHEMICAL PHYSICS, 132 (15), 154104 (2010). 
 A consistent and accurate ab initio parametrization of density
 functional dispersion correction (DFT-D) for the 94 elements H-Pu.
 https://doi.org/10.1063/1.3382344

 Guidon, M; Hutter, J; VandeVondele, J. 
 JOURNAL OF CHEMICAL THEORY AND COMPUTATION, 5 (11), 3010-3021 (2009). 
 Robust Periodic Hartree-Fock Exchange for Large-Scale Simulations Using
 Gaussian Basis Sets.
 https://doi.org/10.1021/ct900494g

 Guidon, M; Schiffmann, F; Hutter, J; VandeVondele, J. 
 JOURNAL OF CHEMICAL PHYSICS, 128 (21), 214104 (2008). 
 Ab initio molecular dynamics using hybrid density functionals.
 https://doi.org/10.1063/1.2931945

 VandeVondele, J; Hutter, J. 
 JOURNAL OF CHEMICAL PHYSICS, 127 (11), 114105 (2007). 
 Gaussian basis sets for accurate calculations on molecular systems in
 gas and condensed phases.
 https://doi.org/10.1063/1.2770708

 Frigo, M; Johnson, SG. 
 PROCEEDINGS OF THE IEEE, 93 (2), 216-231 (2005). 
 The design and implementation of FFTW3.
 https://doi.org/10.1109/JPROC.2004.840301

 Iannuzzi, M; Chassaing, T; Wallman, T; Hutter, J. 
 CHIMIA, 59 (7-8), 499-503 (2005). 
 Ground and excited state density functional calculations with the
 Gaussian and augmented-plane-wave method.
 https://doi.org/10.2533/000942905777676164

 VandeVondele, J; Hutter, J. 
 JOURNAL OF CHEMICAL PHYSICS, 118 (10), 4365-4369 (2003). 
 An efficient orbital transformation method for electronic structure
 calculations.
 https://doi.org/10.1063/1.1543154

 Martin,Richard L.. 
 The Journal of Chemical Physics, 118 (11), 4775-4777 (2003). 
 Natural transition orbitals.
 https://doi.org/10.1063/1.1558471

 Lippert, G; Hutter, J; Parrinello, M. 
 THEORETICAL CHEMISTRY ACCOUNTS, 103 (2), 124-140 (1999). 
 The Gaussian and augmented-plane-wave density functional method for ab
 initio molecular dynamics simulations.
 https://doi.org/10.1007/s002140050523

 Krack, M; Parrinello, M. 
 PHYSICAL CHEMISTRY CHEMICAL PHYSICS, 2 (10), 2105-2112 (2000). 
 All-electron ab-initio molecular dynamics.
 https://doi.org/10.1039/b001167n

 Martyna, GJ; Tuckerman, ME. 
 JOURNAL OF CHEMICAL PHYSICS, 110 (6), 2810-2821 (1999). 
 A reciprocal space based method for treating long range interactions in
 ab initio and force-field-based calculations in clusters.
 https://doi.org/10.1063/1.477923

 BECKE, AD. PHYSICAL REVIEW A, 38 (6), 3098-3100 (1988). 
 DENSITY-FUNCTIONAL EXCHANGE-ENERGY APPROXIMATION WITH CORRECT
 ASYMPTOTIC-BEHAVIOR.
 https://doi.org/10.1103/PhysRevA.38.3098

 LEE, CT; YANG, WT; PARR, RG. 
 PHYSICAL REVIEW B, 37 (2), 785-789 (1988). 
 DEVELOPMENT OF THE COLLE-SALVETTI CORRELATION-ENERGY FORMULA INTO A
 FUNCTIONAL OF THE ELECTRON-DENSITY.
 https://doi.org/10.1103/PhysRevB.37.785

 VOSKO, SH; WILK, L; NUSAIR, M. 
 CANADIAN JOURNAL OF PHYSICS, 58 (8), 1200-1211 (1980). 
 ACCURATE SPIN-DEPENDENT ELECTRON LIQUID CORRELATION ENERGIES FOR LOCAL
 SPIN-DENSITY CALCULATIONS - A CRITICAL ANALYSIS.
 https://doi.org/10.1139/p80-159


 -------------------------------------------------------------------------------
 -                                                                             -
 -                                T I M I N G                                  -
 -                                                                             -
 -------------------------------------------------------------------------------
 SUBROUTINE                       CALLS  ASD         SELF TIME        TOTAL TIME
                                MAXIMUM       AVERAGE  MAXIMUM  AVERAGE  MAXIMUM
 CP2K                                 1  1.0    0.013    0.019  184.718  184.718
 qs_forces                            1  2.0    0.001    0.001  184.155  184.155
 qs_energies                          1  3.0    0.000    0.000  124.754  124.755
 qs_energies_properties               1  4.0    0.000    0.000  109.692  109.692
 tddfpt                               1  5.0    0.000    0.000  109.692  109.692
 tddfpt_energies                      1  6.0    0.000    0.000   86.300   86.300
 tddfpt_davidson_solver               2  7.0    0.001    0.002   85.812   85.812
 tddfpt_compute_Aop_evects           12  8.0    0.000    0.000   85.571   85.572
 fft_wrap_pw1pw2                   3721 12.2    0.024    0.026   51.512   53.911
 fhxc_kernel                         12  9.0    0.003    0.003   53.842   53.842
 fft_wrap_pw1pw2_200               2595 13.5    1.894    1.943   49.979   52.462
 excited_state_energy                 2  3.5    0.001    0.001   50.440   50.440
 integrate_four_center              274 10.6    0.043    0.045   43.111   43.117
 fft3d_ps                          3721 14.2   23.820   26.368   38.600   41.019
 integrate_four_center_main         274 11.6    0.017    0.023   37.967   40.901
 integrate_four_center_bin        26030 12.6   37.950   40.886   37.950   40.886
 response_equation                    1  4.0    0.000    0.000   35.754   35.754
 linres_solver                        1  5.0    0.001    0.002   35.731   35.731
 apply_op                            37  6.0    0.001    0.001   35.686   35.686
 derivatives_four_center              4  8.5    0.004    0.005   33.453   33.982
 derivatives_four_center_main         4  9.5    0.000    0.000   33.393   33.922
 derivatives_four_center_bin        417 10.5   31.411   33.576   31.411   33.576
 tddfpt_apply_hfx                    12  9.0    0.001    0.001   31.657   31.657
 tddft_hfx_matrix                   216 10.0    0.004    0.004   31.348   31.348
 xc_pw_derive                      1359 12.5    0.009    0.010   29.349   30.638
 tddfpt_forces_main                   1  6.0    0.000    0.000   23.340   23.340
 tddfpt_forces                        1  7.0    0.000    0.000   22.440   22.440
 rebuild_ks_matrix                   18  6.8    0.000    0.000   22.366   22.366
 qs_ks_build_kohn_sham_matrix        18  7.8    0.002    0.003   22.366   22.366
 tddfpt_force_direct                  1  8.0    0.000    0.000   22.034   22.034
 tddfpt_kernel_force                  1  9.0    0.000    0.000   22.028   22.028
 fhxc_force                           1 10.0    0.001    0.001   22.028   22.028
 apply_op_2_dft                      36  7.0    0.002    0.002   21.073   21.137
 prepare_gapw_den                   210  8.9    0.004    0.004   20.370   20.519
 xc_pw_divergence                   207 12.3    0.004    0.004   17.730   19.050
 tddfpt_apply_xc_analytic           108 10.0    0.711    0.771   18.221   18.455
 calculate_rho_elec                 204  9.7    0.156    0.161   15.288   15.293
 qs_rho_update_rho_low              199  8.7    0.002    0.002   15.257   15.258
 mp_alltoall_z22v                  3721 16.2    8.999   15.114    8.999   15.114
 scf_env_do_scf                       1  4.0    0.000    0.000   14.921   14.921
 response_force                       1  4.0    0.003    0.004   14.685   14.685
 hfx_ks_matrix                       18  8.8    0.000    0.001   14.112   14.112
 xc_calc_2nd_deriv_analytical       762 11.2    1.178    1.316   13.681   14.100
 qs_ks_update_qs_env                 19  6.0    0.000    0.000   13.443   13.443
 density_rs2pw                      204 10.7    0.006    0.006   12.162   12.571
 xc_rho_set_and_dset_create         100 12.2    0.988    1.096   10.598   12.332
 qs_fxc_analytic                     37  8.0    0.001    0.001   12.103   12.164
 qs_vxc_create                       61 11.7    0.001    0.001   11.766   11.771
 xc_vxc_pw_create                    61 12.7    0.105    0.113   11.765   11.770
 integrate_v_rspace                 171  9.4    0.003    0.003   11.327   11.737
 calculate_rho0_atom                618  9.9   10.639   11.529   10.639   11.529
 yz_to_x                           1891 15.4    2.584    2.904    7.923   11.089
 scf_env_do_scf_inner_loop           17  5.0    0.000    0.001   11.066   11.066
 tddfpt_apply_coulomb               108 10.0    0.001    0.001    8.991   10.025
 x_to_yz                           1830 15.1    3.154    3.603    6.813    9.629
 qs_ks_update_qs_env_forces           1  3.0    0.000    0.000    8.924    8.924
 xc_calc_2nd_deriv                   38  8.9    0.245    0.279    7.731    8.675
 qs_fgxc_gdiff                        1 11.0    0.000    0.000    8.239    8.240
 qs_fxc_fdiff                         7 12.0    0.000    0.000    8.219    8.219
 potential_pw2rs                    171 10.4    0.010    0.011    7.803    8.216
 put_rho0_on_grid                   206  9.9    0.182    0.209    6.581    6.754
 pw_gather_p                       1891 14.4    5.707    6.284    5.707    6.284
 transfer_rs2pw                    1023 11.5    0.007    0.008    5.709    6.214
 transfer_pw2rs                     852 11.4    0.004    0.005    5.584    5.606
 xc_prep_2nd_deriv                   39  8.9    0.000    0.000    4.798    5.592
 mp_sync                           1448 12.4    3.237    5.576    3.237    5.576
 apply_hfx                           36  7.0    0.000    0.001    5.367    5.373
 hfx_matrix                          36  8.0    0.001    0.001    5.365    5.370
 transfer_rs2pw_200                 411 12.3    2.341    2.428    4.646    5.207
 integrate_vhg0_rspace              167 10.0    0.976    1.048    5.192    5.202
 pw_poisson_solve                   168 10.0    0.002    0.002    3.891    5.013
 mp_sum_d                          2194  9.2    2.950    4.757    2.950    4.757
 transfer_pw2rs_200                 339 12.2    2.175    2.204    4.365    4.419
 mp_waitany                       15000 13.2    3.468    4.075    3.468    4.075
 xc_functional_eval                3184 12.0    0.003    0.005    2.240    3.996
 init_scf_loop                        1  5.0    0.000    0.000    3.854    3.854
 mp_sum_lv                           38  3.6    1.983    3.720    1.983    3.720
 -------------------------------------------------------------------------------

 The number of warnings for this run is : 0
 
 -------------------------------------------------------------------------------
  **** **** ******  **  PROGRAM ENDED AT                 2025-01-04 22:16:06.652
 ***** ** ***  *** **   PROGRAM RAN ON                               nesh-srp113
 **    ****   ******    PROGRAM RAN BY                                  suphc356
 ***** **    ** ** **   PROGRAM PROCESS ID                               1641373
  **** **  *******  **  PROGRAM STOPPED IN /gxfs_work/cau/suphc356/NEWTONX_proje
                                           ct/Pyrazin_molecule/CP2K_GAPW_B3LYP_d
                                           ef2_TZVP/MOLDYN_BA_again/TRAJECTORIES
                                           /TRAJ10/TEMP
