 DBCSR| CPU Multiplication driver                                           XSMM (U)
 DBCSR| Multrec recursion limit                                              512 (U)
 DBCSR| Multiplication stack size                                           1000 (D)
 DBCSR| Maximum elements for images                                    UNLIMITED (U)
 DBCSR| Multiplicative factor virtual images                                   1 (U)
 DBCSR| Use multiplication densification                                       T (D)
 DBCSR| Multiplication size stacks                                             3 (U)
 DBCSR| Use memory pool for CPU allocation                                     F (U)
 DBCSR| Number of 3D layers                                               SINGLE (U)
 DBCSR| Use MPI memory allocation                                              F (U)
 DBCSR| Use RMA algorithm                                                      F (U)
 DBCSR| Use Communication thread                                               T (U)
 DBCSR| Communication thread load                                             87 (D)
 DBCSR| MPI: My process id                                                     0
 DBCSR| MPI: Number of processes                                              16
 DBCSR| OMP: Current number of threads                                         1
 DBCSR| OMP: Max number of threads                                             1
 DBCSR| Split modifier for TAS multiplication algorithm                  1.0E+00 (U)


  **** **** ******  **  PROGRAM STARTED AT               2024-12-19 00:08:11.340
 ***** ** ***  *** **   PROGRAM STARTED ON                           nesh-clk484
 **    ****   ******    PROGRAM STARTED BY                              suphc356
 ***** **    ** ** **   PROGRAM PROCESS ID                               1876618
  **** **  *******  **  PROGRAM STARTED IN /gxfs_work/cau/suphc356/NEWTONX_proje
                                           ct/Pyrazin_molecule/CP2K_GAPW_B3LYP_d
                                           ef2_TZVP/MOLDYN_OD/TRAJECTORIES/TRAJ2
                                           19/TEMP

 CP2K| version string:                 CP2K version 2024.1 (Development Version)
 CP2K| source code revision number:                                  git:990486a
 CP2K| cp2kflags: omp libint fftw3 libxc libgrpp parallel mpi_f08 scalapack cosm
 CP2K|            a xsmm spglib mkl
 CP2K| is freely available from                            https://www.cp2k.org/
 CP2K| Program compiled at                          Mon Mar 11 08:48:45 CET 2024
 CP2K| Program compiled on                                           nesh-login2
 CP2K| Program compiled for                                                local
 CP2K| Data directory path                 /gxfs_work/cau/suphc356/cp2k_gcc/data
 CP2K| Input file name                                                  cp2k.inp

 GLOBAL| Force Environment number                                              1
 GLOBAL| Basis set file name                                     EMSL_BASIS_SETS
 GLOBAL| Potential file name                                      ALL_POTENTIALS
 GLOBAL| MM Potential file name                                     MM_POTENTIAL
 GLOBAL| Coordinate file name                                      __STD_INPUT__
 GLOBAL| Method name                                                        CP2K
 GLOBAL| Project name                                               testsuite_ad
 GLOBAL| Run type                                                   ENERGY_FORCE
 GLOBAL| FFT library                                                       FFTW3
 GLOBAL| Diagonalization library                                       ScaLAPACK
 GLOBAL| DGEMM library                                                      BLAS
 GLOBAL| Orthonormality check for eigenvectors                          DISABLED
 GLOBAL| Matrix multiplication library                                     COSMA
 GLOBAL| All-to-all communication in single precision                          F
 GLOBAL| FFTs using library dependent lengths                                  F
 GLOBAL| Grid backend                                                       AUTO
 GLOBAL| Global print level                                               MEDIUM
 GLOBAL| MPI I/O enabled                                                       T
 GLOBAL| Total number of message passing processes                            16
 GLOBAL| Number of threads for this process                                    1
 GLOBAL| This output is from process                                           0
 GLOBAL| Stack size for threads created by OpenMP (OMP_STACKSIZE)           256M
 GLOBAL| CPU model name                Intel(R) Xeon(R) Gold 6226R CPU @ 2.90GHz
 GLOBAL| CPUID                                                              1003
 GLOBAL| Compiled for CPUID                                                    0

 *** HINT in environment.F:920 :: The compiler target flags (generic) used ***
 *** to build this binary cannot exploit all extensions of this CPU model  ***
 *** (x86_avx512). Consider compiler target flags as part of FCFLAGS and   ***
 *** CFLAGS (ARCH file).                                                   ***


 MEMORY| system memory details [Kb]
 MEMORY|                        rank 0           min           max       average
 MEMORY| MemTotal            196683224     196683224     196683224     196683224
 MEMORY| MemFree             174065800     174065800     174065800     174065800
 MEMORY| Buffers                694476        694476        694476        694476
 MEMORY| Cached                 727868        727868        727868        727868
 MEMORY| Slab                  6711740       6711740       6711740       6711740
 MEMORY| SReclaimable           183292        183292        183292        183292
 MEMORY| MemLikelyFree       175671436     175671436     175671436     175671436


 *** Fundamental physical constants (SI units) ***

 *** Literature: B. J. Mohr and B. N. Taylor,
 ***             CODATA recommended values of the fundamental physical
 ***             constants: 2006, Web Version 5.1
 ***             http://physics.nist.gov/constants

 Speed of light in vacuum [m/s]                             2.99792458000000E+08
 Magnetic constant or permeability of vacuum [N/A**2]       1.25663706143592E-06
 Electric constant or permittivity of vacuum [F/m]          8.85418781762039E-12
 Planck constant (h) [J*s]                                  6.62606896000000E-34
 Planck constant (h-bar) [J*s]                              1.05457162825177E-34
 Elementary charge [C]                                      1.60217648700000E-19
 Electron mass [kg]                                         9.10938215000000E-31
 Electron g factor [ ]                                     -2.00231930436220E+00
 Proton mass [kg]                                           1.67262163700000E-27
 Fine-structure constant                                    7.29735253760000E-03
 Rydberg constant [1/m]                                     1.09737315685270E+07
 Avogadro constant [1/mol]                                  6.02214179000000E+23
 Boltzmann constant [J/K]                                   1.38065040000000E-23
 Atomic mass unit [kg]                                      1.66053878200000E-27
 Bohr radius [m]                                            5.29177208590000E-11

 *** Conversion factors ***

 [u] -> [a.u.]                                              1.82288848426455E+03
 [Angstrom] -> [Bohr] = [a.u.]                              1.88972613288564E+00
 [a.u.] = [Bohr] -> [Angstrom]                              5.29177208590000E-01
 [a.u.] -> [s]                                              2.41888432650478E-17
 [a.u.] -> [fs]                                             2.41888432650478E-02
 [a.u.] -> [J]                                              4.35974393937059E-18
 [a.u.] -> [N]                                              8.23872205491840E-08
 [a.u.] -> [K]                                              3.15774647902944E+05
 [a.u.] -> [kJ/mol]                                         2.62549961709828E+03
 [a.u.] -> [kcal/mol]                                       6.27509468713739E+02
 [a.u.] -> [Pa]                                             2.94210107994716E+13
 [a.u.] -> [bar]                                            2.94210107994716E+08
 [a.u.] -> [atm]                                            2.90362800883016E+08
 [a.u.] -> [eV]                                             2.72113838565563E+01
 [a.u.] -> [Hz]                                             6.57968392072181E+15
 [a.u.] -> [1/cm] (wave numbers)                            2.19474631370540E+05
 [a.u./Bohr**2] -> [1/cm]                                   5.14048714338585E+03
 

 CELL_TOP| Volume [angstrom^3]:                                      2744.000000
 CELL_TOP| Vector a [angstrom    14.000     0.000     0.000   |a| =    14.000000
 CELL_TOP| Vector b [angstrom     0.000    14.000     0.000   |b| =    14.000000
 CELL_TOP| Vector c [angstrom     0.000     0.000    14.000   |c| =    14.000000
 CELL_TOP| Angle (b,c), alpha [degree]:                                90.000000
 CELL_TOP| Angle (a,c), beta  [degree]:                                90.000000
 CELL_TOP| Angle (a,b), gamma [degree]:                                90.000000
 CELL_TOP| Numerically orthorhombic:                                         YES
 CELL_TOP| Periodicity                                                      NONE

 CELL| Volume [angstrom^3]:                                          2744.000000
 CELL| Vector a [angstrom]:      14.000     0.000     0.000   |a| =    14.000000
 CELL| Vector b [angstrom]:       0.000    14.000     0.000   |b| =    14.000000
 CELL| Vector c [angstrom]:       0.000     0.000    14.000   |c| =    14.000000
 CELL| Angle (b,c), alpha [degree]:                                    90.000000
 CELL| Angle (a,c), beta  [degree]:                                    90.000000
 CELL| Angle (a,b), gamma [degree]:                                    90.000000
 CELL| Numerically orthorhombic:                                             YES
 CELL| Periodicity                                                          NONE

 CELL_REF| Volume [angstrom^3]:                                      2744.000000
 CELL_REF| Vector a [angstrom    14.000     0.000     0.000   |a| =    14.000000
 CELL_REF| Vector b [angstrom     0.000    14.000     0.000   |b| =    14.000000
 CELL_REF| Vector c [angstrom     0.000     0.000    14.000   |c| =    14.000000
 CELL_REF| Angle (b,c), alpha [degree]:                                90.000000
 CELL_REF| Angle (a,c), beta  [degree]:                                90.000000
 CELL_REF| Angle (a,b), gamma [degree]:                                90.000000
 CELL_REF| Numerically orthorhombic:                                         YES
 CELL_REF| Periodicity                                                      NONE

 *******************************************************************************
 *******************************************************************************
 **                                                                           **
 **     #####                         ##              ##                      **
 **    ##   ##            ##          ##              ##                      **
 **   ##     ##                       ##            ######                    **
 **   ##     ##  ##   ##  ##   #####  ##  ##   ####   ##    #####    #####    **
 **   ##     ##  ##   ##  ##  ##      ## ##   ##      ##   ##   ##  ##   ##   **
 **   ##  ## ##  ##   ##  ##  ##      ####     ###    ##   ######   ######    **
 **    ##  ###   ##   ##  ##  ##      ## ##      ##   ##   ##       ##        **
 **     #######   #####   ##   #####  ##  ##  ####    ##    #####   ##        **
 **           ##                                                    ##        **
 **                                                                           **
 **                                                ... make the atoms dance   **
 **                                                                           **
 **            Copyright (C) by CP2K developers group (2000-2024)             **
 **                      J. Chem. Phys. 152, 194103 (2020)                    **
 **                                                                           **
 *******************************************************************************

 DFT| Spin restricted Kohn-Sham (RKS) calculation                            RKS
 DFT| Multiplicity                                                             1
 DFT| Number of spin states                                                    1
 DFT| Charge                                                                   0
 DFT| Self-interaction correction (SIC)                                       NO
 DFT| Cutoffs: density                                              1.000000E-10
 DFT|          gradient                                             1.000000E-10
 DFT|          tau                                                  1.000000E-10
 DFT|          cutoff_smoothing_range                               0.000000E+00
 DFT| XC density smoothing                                                  NONE
 DFT| XC derivatives                                                          PW

 FUNCTIONAL| BECKE88:
 FUNCTIONAL| A. Becke, Phys. Rev. A 38, 3098 (1988) {LDA version}               
 FUNCTIONAL| LYP:
 FUNCTIONAL| C. Lee, W. Yang, R.G. Parr, Phys. Rev. B, 37, 785 (1988) {LDA versi
 FUNCTIONAL| on}                                                                
 FUNCTIONAL| VWN:
 FUNCTIONAL| S. H. Vosko, L. Wilk and M. Nusair, Can. J. Phys. 58, 1200 (1980) {
 FUNCTIONAL| LDA version}                                                       
 FUNCTIONAL| XALPHA:
 FUNCTIONAL| Dirac/Slater local exchange; parameter=  0.666 {LDA}               

 vdW POTENTIAL|                                                   Pair Potential
 vdW POTENTIAL|          DFT-D3 (Version 3.1)
 vdW POTENTIAL|          Potential Form: S. Grimme et al, JCP 132: 154104 (2010)
 vdW POTENTIAL|          Zero Damping
 vdW POTENTIAL|          Cutoff Radius [Bohr]:                             37.79
 vdW POTENTIAL|          s6 Scaling Factor:                               1.0000
 vdW POTENTIAL|          sr6 Scaling Factor:                              1.2610
 vdW POTENTIAL|          s8 Scaling Factor:                               1.7030
 vdW POTENTIAL|          Cutoff for CN calculation:                   0.1000E-05

 QS| Method:                                                                GAPW
 QS| Density plane wave grid type                        NON-SPHERICAL FULLSPACE
 QS| Number of grid levels:                                                    4
 QS| Density cutoff [a.u.]:                                                200.0
 QS| Multi grid cutoff [a.u.]: 1) grid level                               200.0
 QS|                           2) grid level                                66.7
 QS|                           3) grid level                                22.2
 QS|                           4) grid level                                 7.4
 QS| Grid level progression factor:                                          3.0
 QS| Relative density cutoff [a.u.]:                                        30.0
 QS| Interaction thresholds: eps_pgf_orb:                                1.0E-07
 QS|                         eps_filter_matrix:                          0.0E+00
 QS|                         eps_core_charge:                            1.0E-16
 QS|                         eps_rho_gspace:                             1.0E-14
 QS|                         eps_rho_rspace:                             1.0E-14
 QS|                         eps_gvg_rspace:                             1.0E-07
 QS|                         eps_ppl:                                    1.0E-02
 QS|                         eps_ppnl:                                   1.0E-09
 QS| GAPW|      One center basis extended with primitives (small:s)
 QS| GAPW|                   eps_fit:                                    1.0E-04
 QS| GAPW|                   eps_iso:                                    1.0E-12
 QS| GAPW|                   eps_svd:                                    1.0E-08
 QS| GAPW|                   eps_cpc:                                    1.0E-14
 QS| GAPW|   atom-r-grid: quadrature:                                     GC_LOG
 QS| GAPW|      atom-s-grid:  max l :                                          6
 QS| GAPW|      max_l_rho0 :                                                   4


 ATOMIC KIND INFORMATION

  1. Atomic kind: n                                     Number of atoms:       2

     Orbital Basis Set                                        Ahlrichs-def2-TZVP

       Number of orbital shell sets:                                          11
       Number of orbital shells:                                              11
       Number of primitive Cartesian functions:                               20
       Number of Cartesian basis functions:                                   36
       Number of spherical basis functions:                                   31
       Norm type:                                                              2

       Normalised Cartesian orbitals:

                        Set   Shell   Orbital            Exponent    Coefficient

                          1       1    1s            19730.800647       0.695604
                                                      2957.895874       1.298610
                                                       673.221336       2.219088
                                                       190.682495       3.463661
                                                        62.295442       4.696756
                                                        22.654161       4.952251

                          2       1    1s                8.979148       2.388068
                                                         3.686300       0.733788

                          3       1    1s                0.846601       0.629027

                          4       1    1s                0.336471       0.314863

                          5       1    1s                0.136477       0.160031

                          6       1    1px              49.200381       2.126481
                                                        11.346791       2.327937
                                                         3.427397       2.048573
                                                         1.178553       1.260732
                          6       1    1py              49.200381       2.126481
                                                        11.346791       2.327937
                                                         3.427397       2.048573
                                                         1.178553       1.260732
                          6       1    1pz              49.200381       2.126481
                                                        11.346791       2.327937
                                                         3.427397       2.048573
                                                         1.178553       1.260732

                          7       1    1px               0.416422       0.476823
                          7       1    1py               0.416422       0.476823
                          7       1    1pz               0.416422       0.476823

                          8       1    1px               0.142608       0.124917
                          8       1    1py               0.142608       0.124917
                          8       1    1pz               0.142608       0.124917

                          9       1    1dx2              1.654000       3.970513
                          9       1    1dxy              1.654000       6.877130
                          9       1    1dxz              1.654000       6.877130
                          9       1    1dy2              1.654000       3.970513
                          9       1    1dyz              1.654000       6.877130
                          9       1    1dz2              1.654000       3.970513

                         10       1    1dx2              0.469000       0.437484
                         10       1    1dxy              0.469000       0.757744
                         10       1    1dxz              0.469000       0.757744
                         10       1    1dy2              0.469000       0.437484
                         10       1    1dyz              0.469000       0.757744
                         10       1    1dz2              0.469000       0.437484

                         11       1    1fx3              1.093000       1.798249
                         11       1    1fx2y             1.093000       4.021007
                         11       1    1fx2z             1.093000       4.021007
                         11       1    1fxy2             1.093000       4.021007
                         11       1    1fxyz             1.093000       6.964588
                         11       1    1fxz2             1.093000       4.021007
                         11       1    1fy3              1.093000       1.798249
                         11       1    1fy2z             1.093000       4.021007
                         11       1    1fyz2             1.093000       4.021007
                         11       1    1fz3              1.093000       1.798249

       Atomic covalent radius [Angstrom]:                                  0.750

       Atomic van der Waals radius [Angstrom]:                             1.550

     The atoms of this atomic kind are PAW atoms (GAPW):
       Hard Gaussian function radius:                                      1.400
       Rho0 radius:                                                        1.400
       Maximum GTO radius used for PAW projector construction:            24.566

     GAPW Soft Basis Set                                 Ahlrichs-def2-TZVP_soft

       Number of orbital shell sets:                                          11
       Number of orbital shells:                                              11
       Number of primitive Cartesian functions:                               11
       Number of Cartesian basis functions:                                   36
       Number of spherical basis functions:                                   31
       Norm type:                                                              2

       Normalised Cartesian orbitals:

                        Set   Shell   Orbital            Exponent    Coefficient

                          1       1    1s         

                          2       1    1s                3.686300       0.733788

                          3       1    1s                0.846601       0.629027

                          4       1    1s                0.336471       0.314863

                          5       1    1s                0.136477       0.160031

                          6       1    1px               3.427397       2.048573
                                                         1.178553       1.260732
                          6       1    1py               3.427397       2.048573
                                                         1.178553       1.260732
                          6       1    1pz               3.427397       2.048573
                                                         1.178553       1.260732

                          7       1    1px               0.416422       0.476823
                          7       1    1py               0.416422       0.476823
                          7       1    1pz               0.416422       0.476823

                          8       1    1px               0.142608       0.124917
                          8       1    1py               0.142608       0.124917
                          8       1    1pz               0.142608       0.124917

                          9       1    1dx2              1.654000       3.970513
                          9       1    1dxy              1.654000       6.877130
                          9       1    1dxz              1.654000       6.877130
                          9       1    1dy2              1.654000       3.970513
                          9       1    1dyz              1.654000       6.877130
                          9       1    1dz2              1.654000       3.970513

                         10       1    1dx2              0.469000       0.437484
                         10       1    1dxy              0.469000       0.757744
                         10       1    1dxz              0.469000       0.757744
                         10       1    1dy2              0.469000       0.437484
                         10       1    1dyz              0.469000       0.757744
                         10       1    1dz2              0.469000       0.437484

                         11       1    1fx3              1.093000       1.798249
                         11       1    1fx2y             1.093000       4.021007
                         11       1    1fx2z             1.093000       4.021007
                         11       1    1fxy2             1.093000       4.021007
                         11       1    1fxyz             1.093000       6.964588
                         11       1    1fxz2             1.093000       4.021007
                         11       1    1fy3              1.093000       1.798249
                         11       1    1fy2z             1.093000       4.021007
                         11       1    1fyz2             1.093000       4.021007
                         11       1    1fz3              1.093000       1.798249

     AE Potential information for                                            ALL

       Description:                                       All-electron potential
                                          Krack, Parrinello, PCCP 2, 2105 (2000)

       Gaussian exponent of the core charge distribution:               5.979100
       Electronic configuration (s p d ...):                           4   3   0

  2. Atomic kind: c                                     Number of atoms:       4

     Orbital Basis Set                                        Ahlrichs-def2-TZVP

       Number of orbital shell sets:                                          11
       Number of orbital shells:                                              11
       Number of primitive Cartesian functions:                               20
       Number of Cartesian basis functions:                                   36
       Number of spherical basis functions:                                   31
       Norm type:                                                              2

       Normalised Cartesian orbitals:

                        Set   Shell   Orbital            Exponent    Coefficient

                          1       1    1s            13575.349682       0.543591
                                                      2035.233368       1.014554
                                                       463.225624       1.731573
                                                       131.200196       2.691038
                                                        42.853016       3.604455
                                                        15.584186       3.702556

                          2       1    1s                6.206714       1.838354
                                                         2.576490       0.544758

                          3       1    1s                0.576963       0.471815

                          4       1    1s                0.229728       0.236494

                          5       1    1s                0.095164       0.122114

                          6       1    1px              34.697232       1.359665
                                                         7.958262       1.451259
                                                         2.378083       1.270923
                                                         0.814332       0.802572
                          6       1    1py              34.697232       1.359665
                                                         7.958262       1.451259
                                                         2.378083       1.270923
                                                         0.814332       0.802572
                          6       1    1pz              34.697232       1.359665
                                                         7.958262       1.451259
                                                         2.378083       1.270923
                                                         0.814332       0.802572

                          7       1    1px               0.288875       0.301876
                          7       1    1py               0.288875       0.301876
                          7       1    1pz               0.288875       0.301876

                          8       1    1px               0.100568       0.080727
                          8       1    1py               0.100568       0.080727
                          8       1    1pz               0.100568       0.080727

                          9       1    1dx2              1.097000       1.935401
                          9       1    1dxy              1.097000       3.352214
                          9       1    1dxz              1.097000       3.352214
                          9       1    1dy2              1.097000       1.935401
                          9       1    1dyz              1.097000       3.352214
                          9       1    1dz2              1.097000       1.935401

                         10       1    1dx2              0.318000       0.221644
                         10       1    1dxy              0.318000       0.383899
                         10       1    1dxz              0.318000       0.383899
                         10       1    1dy2              0.318000       0.221644
                         10       1    1dyz              0.318000       0.383899
                         10       1    1dz2              0.318000       0.221644

                         11       1    1fx3              0.761000       0.796288
                         11       1    1fx2y             0.761000       1.780553
                         11       1    1fx2z             0.761000       1.780553
                         11       1    1fxy2             0.761000       1.780553
                         11       1    1fxyz             0.761000       3.084008
                         11       1    1fxz2             0.761000       1.780553
                         11       1    1fy3              0.761000       0.796288
                         11       1    1fy2z             0.761000       1.780553
                         11       1    1fyz2             0.761000       1.780553
                         11       1    1fz3              0.761000       0.796288

       Atomic covalent radius [Angstrom]:                                  0.770

       Atomic van der Waals radius [Angstrom]:                             1.700

     The atoms of this atomic kind are PAW atoms (GAPW):
       Hard Gaussian function radius:                                      1.520
       Rho0 radius:                                                        1.520
       Maximum GTO radius used for PAW projector construction:            24.566

     GAPW Soft Basis Set                                 Ahlrichs-def2-TZVP_soft

       Number of orbital shell sets:                                          11
       Number of orbital shells:                                              11
       Number of primitive Cartesian functions:                               11
       Number of Cartesian basis functions:                                   36
       Number of spherical basis functions:                                   31
       Norm type:                                                              2

       Normalised Cartesian orbitals:

                        Set   Shell   Orbital            Exponent    Coefficient

                          1       1    1s         

                          2       1    1s                2.576490       0.544758

                          3       1    1s                0.576963       0.471815

                          4       1    1s                0.229728       0.236494

                          5       1    1s                0.095164       0.122114

                          6       1    1px               2.378083       1.270923
                                                         0.814332       0.802572
                          6       1    1py               2.378083       1.270923
                                                         0.814332       0.802572
                          6       1    1pz               2.378083       1.270923
                                                         0.814332       0.802572

                          7       1    1px               0.288875       0.301876
                          7       1    1py               0.288875       0.301876
                          7       1    1pz               0.288875       0.301876

                          8       1    1px               0.100568       0.080727
                          8       1    1py               0.100568       0.080727
                          8       1    1pz               0.100568       0.080727

                          9       1    1dx2              1.097000       1.935401
                          9       1    1dxy              1.097000       3.352214
                          9       1    1dxz              1.097000       3.352214
                          9       1    1dy2              1.097000       1.935401
                          9       1    1dyz              1.097000       3.352214
                          9       1    1dz2              1.097000       1.935401

                         10       1    1dx2              0.318000       0.221644
                         10       1    1dxy              0.318000       0.383899
                         10       1    1dxz              0.318000       0.383899
                         10       1    1dy2              0.318000       0.221644
                         10       1    1dyz              0.318000       0.383899
                         10       1    1dz2              0.318000       0.221644

                         11       1    1fx3              0.761000       0.796288
                         11       1    1fx2y             0.761000       1.780553
                         11       1    1fx2z             0.761000       1.780553
                         11       1    1fxy2             0.761000       1.780553
                         11       1    1fxyz             0.761000       3.084008
                         11       1    1fxz2             0.761000       1.780553
                         11       1    1fy3              0.761000       0.796288
                         11       1    1fy2z             0.761000       1.780553
                         11       1    1fyz2             0.761000       1.780553
                         11       1    1fz3              0.761000       0.796288

     AE Potential information for                                            ALL

       Description:                                       All-electron potential
                                          Krack, Parrinello, PCCP 2, 2105 (2000)

       Gaussian exponent of the core charge distribution:               4.109048
       Electronic configuration (s p d ...):                           4   2   0

  3. Atomic kind: h                                     Number of atoms:       4

     Orbital Basis Set                                        Ahlrichs-def2-TZVP

       Number of orbital shell sets:                                           4
       Number of orbital shells:                                               4
       Number of primitive Cartesian functions:                                6
       Number of Cartesian basis functions:                                    6
       Number of spherical basis functions:                                    6
       Norm type:                                                              2

       Normalised Cartesian orbitals:

                        Set   Shell   Orbital            Exponent    Coefficient

                          1       1    1s               34.061341       0.255630
                                                         5.123575       0.461360
                                                         1.164663       0.681121

                          2       1    1s                0.327230       0.308355

                          3       1    1s                0.103072       0.129648

                          4       1    1px               0.800000       1.078456
                          4       1    1py               0.800000       1.078456
                          4       1    1pz               0.800000       1.078456

       Atomic covalent radius [Angstrom]:                                  0.320

       Atomic van der Waals radius [Angstrom]:                             1.090

     The atoms of this atomic kind are PAW atoms (GAPW):
       Hard Gaussian function radius:                                      1.000
       Rho0 radius:                                                        1.000
       Maximum GTO radius used for PAW projector construction:            24.566

     GAPW Soft Basis Set                                 Ahlrichs-def2-TZVP_soft

       Number of orbital shell sets:                                           4
       Number of orbital shells:                                               4
       Number of primitive Cartesian functions:                                5
       Number of Cartesian basis functions:                                    6
       Number of spherical basis functions:                                    6
       Norm type:                                                              2

       Normalised Cartesian orbitals:

                        Set   Shell   Orbital            Exponent    Coefficient

                          1       1    1s                5.123575       0.461360
                                                         1.164663       0.681121

                          2       1    1s                0.327230       0.308355

                          3       1    1s                0.103072       0.129648

                          4       1    1px               0.800000       1.078456
                          4       1    1py               0.800000       1.078456
                          4       1    1pz               0.800000       1.078456

     AE Potential information for                                            ALL

       Description:                                       All-electron potential
                                          Krack, Parrinello, PCCP 2, 2105 (2000)

       Gaussian exponent of the core charge distribution:              12.500000
       Electronic configuration (s p d ...):                           1   0   0


 MOLECULE KIND INFORMATION


 All atoms are their own molecule, skipping detailed information


 TOTAL NUMBERS AND MAXIMUM NUMBERS

  Total number of            - Atomic kinds:                                   3
                             - Atoms:                                         10
                             - Shell sets:                                    82
                             - Shells:                                        82
                             - Primitive Cartesian functions:                144
                             - Cartesian basis functions:                    240
                             - Spherical basis functions:                    210

  Maximum angular momentum of the orbital basis functions:                     3


 MODULE QUICKSTEP: ATOMIC COORDINATES IN ANGSTROM

   Atom Kind Element         X             Y             Z       Z(eff)     Mass
      1    1 n     7      7.000792      8.057234      7.536026   7.0000  14.0067
      2    1 n     7      6.940830      5.824216      6.362479   7.0000  14.0067
      3    2 c     6      7.065608      6.974974      8.336451   6.0000  12.0107
      4    2 c     6      7.003488      5.721358      7.645388   6.0000  12.0107
      5    2 c     6      6.926180      8.294482      6.322510   6.0000  12.0107
      6    2 c     6      7.080095      6.824070      5.496745   6.0000  12.0107
      7    3 h     1      6.898462      6.886905      9.398949   1.0000   1.0079
      8    3 h     1      7.101538      4.756947      8.057031   1.0000   1.0079
      9    3 h     1      6.948903      9.243053      5.771744   1.0000   1.0079
     10    3 h     1      6.973914      6.473172      4.601051   1.0000   1.0079



 SCF PARAMETERS         Density guess:                                   RESTART
                        --------------------------------------------------------
                        max_scf:                                              50
                        max_scf_history:                                       0
                        max_diis:                                              4
                        --------------------------------------------------------
                        eps_scf:                                        1.00E-08
                        eps_scf_history:                                0.00E+00
                        eps_diis:                                       1.00E-01
                        eps_eigval:                                     1.00E-05
                        --------------------------------------------------------
                        level_shift [a.u.]:                             0.000000
                        --------------------------------------------------------
                        Outer loop SCF in use 
                        No variables optimised in outer loop
                        eps_scf                                         1.00E-08
                        max_scf                                              900
                        No outer loop optimization
                        step_size                                       5.00E-01

 PW_GRID| Information for grid number                                          1
 PW_GRID| Grid distributed over                                    16 processors
 PW_GRID| Real space group dimensions                                    16    1
 PW_GRID| the grid is blocked:                                                NO
 PW_GRID| Cutoff [a.u.]                                                    400.0
 PW_GRID| spherical cutoff:                                                   NO
 PW_GRID|   Bounds   1           -120     119                Points:         240
 PW_GRID|   Bounds   2           -120     119                Points:         240
 PW_GRID|   Bounds   3           -120     119                Points:         240
 PW_GRID| Volume element (a.u.^3)  0.1340E-02     Volume (a.u.^3)     18517.4301
 PW_GRID| Grid span                                                    FULLSPACE
 PW_GRID|   Distribution                         Average         Max         Min
 PW_GRID|   G-Vectors                           864000.0      864000      864000
 PW_GRID|   G-Rays                                3600.0        3600        3600
 PW_GRID|   Real Space Points                   864000.0      864000      864000

 PW_GRID| Information for grid number                                          2
 PW_GRID| Number of the reference grid                                         1
 PW_GRID| Grid distributed over                                    16 processors
 PW_GRID| Real space group dimensions                                    16    1
 PW_GRID| the grid is blocked:                                                NO
 PW_GRID| Cutoff [a.u.]                                                    200.0
 PW_GRID| spherical cutoff:                                                   NO
 PW_GRID|   Bounds   1            -90      89                Points:         180
 PW_GRID|   Bounds   2            -90      89                Points:         180
 PW_GRID|   Bounds   3            -90      89                Points:         180
 PW_GRID| Volume element (a.u.^3)  0.3175E-02     Volume (a.u.^3)     18517.4301
 PW_GRID| Grid span                                                    FULLSPACE
 PW_GRID|   Distribution                         Average         Max         Min
 PW_GRID|   G-Vectors                           364500.0      364680      364320
 PW_GRID|   G-Rays                                2025.0        2026        2024
 PW_GRID|   Real Space Points                   364500.0      388800      356400

 PW_GRID| Information for grid number                                          3
 PW_GRID| Number of the reference grid                                         2
 PW_GRID| Grid distributed over                                    16 processors
 PW_GRID| Real space group dimensions                                    16    1
 PW_GRID| the grid is blocked:                                                NO
 PW_GRID| Cutoff [a.u.]                                                     66.7
 PW_GRID| spherical cutoff:                                                   NO
 PW_GRID|   Bounds   1            -50      49                Points:         100
 PW_GRID|   Bounds   2            -50      49                Points:         100
 PW_GRID|   Bounds   3            -50      49                Points:         100
 PW_GRID| Volume element (a.u.^3)  0.1852E-01     Volume (a.u.^3)     18517.4301
 PW_GRID| Grid span                                                    FULLSPACE
 PW_GRID|   Distribution                         Average         Max         Min
 PW_GRID|   G-Vectors                            62500.0       62600       62400
 PW_GRID|   G-Rays                                 625.0         626         624
 PW_GRID|   Real Space Points                    62500.0       70000       60000

 PW_GRID| Information for grid number                                          4
 PW_GRID| Number of the reference grid                                         2
 PW_GRID| Grid distributed over                                    16 processors
 PW_GRID| Real space group dimensions                                    16    1
 PW_GRID| the grid is blocked:                                                NO
 PW_GRID| Cutoff [a.u.]                                                     22.2
 PW_GRID| spherical cutoff:                                                   NO
 PW_GRID|   Bounds   1            -30      29                Points:          60
 PW_GRID|   Bounds   2            -30      29                Points:          60
 PW_GRID|   Bounds   3            -30      29                Points:          60
 PW_GRID| Volume element (a.u.^3)  0.8573E-01     Volume (a.u.^3)     18517.4301
 PW_GRID| Grid span                                                    FULLSPACE
 PW_GRID|   Distribution                         Average         Max         Min
 PW_GRID|   G-Vectors                            13500.0       13560       13440
 PW_GRID|   G-Rays                                 225.0         226         224
 PW_GRID|   Real Space Points                    13500.0       14400       10800

 PW_GRID| Information for grid number                                          5
 PW_GRID| Number of the reference grid                                         2
 PW_GRID| Grid distributed over                                    16 processors
 PW_GRID| Real space group dimensions                                    16    1
 PW_GRID| the grid is blocked:                                                NO
 PW_GRID| Cutoff [a.u.]                                                      7.4
 PW_GRID| spherical cutoff:                                                   NO
 PW_GRID|   Bounds   1            -18      17                Points:          36
 PW_GRID|   Bounds   2            -18      17                Points:          36
 PW_GRID|   Bounds   3            -18      17                Points:          36
 PW_GRID| Volume element (a.u.^3)  0.3969         Volume (a.u.^3)     18517.4301
 PW_GRID| Grid span                                                    FULLSPACE
 PW_GRID|   Distribution                         Average         Max         Min
 PW_GRID|   G-Vectors                             2916.0        2952        2880
 PW_GRID|   G-Rays                                  81.0          82          80
 PW_GRID|   Real Space Points                     2916.0        3888        2592

 POISSON| Solver                                          Martyna-Tuckerman (MT)
 POISSON| MT| Alpha                                                        7.000
 POISSON| MT| Relative cutoff                                                2.0
 POISSON| Periodicity                                                       NONE

 RS_GRID| Information for grid number                                          2
 RS_GRID|   Bounds   1            -90      89                Points:         180
 RS_GRID|   Bounds   2            -90      89                Points:         180
 RS_GRID|   Bounds   3            -90      89                Points:         180
 RS_GRID| Real space distribution over                                  4 groups
 RS_GRID| Real space distribution along direction                              2
 RS_GRID| Border size                                                         31
 RS_GRID| Real space distribution over                                  4 groups
 RS_GRID| Real space distribution along direction                              3
 RS_GRID| Border size                                                         31
 RS_GRID|   Distribution                         Average         Max         Min
 RS_GRID|   Planes                                 107.0         107         107
 RS_GRID|   Distribution                         Average         Max         Min
 RS_GRID|   Planes                                 107.0         107         107

 RS_GRID| Information for grid number                                          3
 RS_GRID|   Bounds   1            -50      49                Points:         100
 RS_GRID|   Bounds   2            -50      49                Points:         100
 RS_GRID|   Bounds   3            -50      49                Points:         100
 RS_GRID| Real space fully replicated
 RS_GRID| Group size                                                           1

 RS_GRID| Information for grid number                                          4
 RS_GRID|   Bounds   1            -30      29                Points:          60
 RS_GRID|   Bounds   2            -30      29                Points:          60
 RS_GRID|   Bounds   3            -30      29                Points:          60
 RS_GRID| Real space fully replicated
 RS_GRID| Group size                                                           1

 RS_GRID| Information for grid number                                          5
 RS_GRID|   Bounds   1            -18      17                Points:          36
 RS_GRID|   Bounds   2            -18      17                Points:          36
 RS_GRID|   Bounds   3            -18      17                Points:          36
 RS_GRID| Real space fully replicated
 RS_GRID| Group size                                                           1

  HFX_INFO| Replica ID:                                                        1
  HFX_INFO| FRACTION:                                               0.2000000000
  HFX_INFO| Interaction Potential:                                       COULOMB
  HFX_INFO| EPS_SCHWARZ:                                                 1.0E-10
  HFX_INFO| EPS_SCHWARZ_FORCES                                           1.0E-08
  HFX_INFO| EPS_STORAGE_SCALING:                                         1.0E+00
  HFX_INFO| NBINS:                                                            64
  HFX_INFO| BLOCK_SIZE:                                                        1
  HFX_INFO| Number of periodic shells considered:                           NONE
  HFX_INFO| Number of periodic cells considered:                            NONE


 Number of electrons:                                                         42
 Number of occupied orbitals:                                                 21
 Number of molecular orbitals:                                                21

 Number of orbital functions:                                                210
 Number of independent orbital functions:                                    210

 Extrapolation method: initial_guess


 SCF WAVEFUNCTION OPTIMIZATION

  ----------------------------------- OT ---------------------------------------
  Minimizer      : DIIS                : direct inversion
                                         in the iterative subspace
                                         using   7 DIIS vectors
                                         safer DIIS on
  Preconditioner : FULL_ALL            : diagonalization, state selective
  Precond_solver : DEFAULT
  stepsize       :    0.15000000                  energy_gap     :    0.08000000
  eps_taylor     :   0.10000E-15                  max_taylor     :             4
  ----------------------------------- OT ---------------------------------------

  Step     Update method      Time    Convergence         Total energy    Change
  ------------------------------------------------------------------------------

  HFX_MEM_INFO| Est. max. program size before HFX [MiB]:                     639
  HFX_MEM_INFO| Number of cart. primitive ERI's calculated:           1709743563
  HFX_MEM_INFO| Number of sph. ERI's calculated:                       315645959
  HFX_MEM_INFO| Number of sph. ERI's stored in-core:                   315645959
  HFX_MEM_INFO| Number of sph. ERI's stored on disk:                           0
  HFX_MEM_INFO| Number of sph. ERI's calculated on the fly:                    0
  HFX_MEM_INFO| Total memory consumption ERI's RAM [MiB]:                    934
  HFX_MEM_INFO| Whereof max-vals [MiB]:                                        5
  HFX_MEM_INFO| Total compression factor ERI's RAM:                         2.58
  HFX_MEM_INFO| Total memory consumption ERI's disk [MiB]:                     0
  HFX_MEM_INFO| Total compression factor ERI's disk:                        0.00
  HFX_MEM_INFO| Size of density/Fock matrix [MiB]:                             0
  HFX_MEM_INFO| Size of buffers [MiB]:                                         0
  HFX_MEM_INFO| Est. max. program size after HFX  [MiB]:                     696

     1 OT DIIS     0.15E+00    5.8     0.01378596      -264.0477054860 -2.64E+02
     2 OT DIIS     0.15E+00    1.0     0.00598104      -264.1368242979 -8.91E-02
     3 OT DIIS     0.15E+00    1.0     0.00147994      -264.1572975125 -2.05E-02
     4 OT DIIS     0.15E+00    1.0     0.00039355      -264.1578661324 -5.69E-04
     5 OT DIIS     0.15E+00    1.0     0.00015282      -264.1579282610 -6.21E-05
     6 OT DIIS     0.15E+00    1.0     0.00008486      -264.1579357517 -7.49E-06
     7 OT DIIS     0.15E+00    1.0     0.00003200      -264.1579381769 -2.43E-06
     8 OT DIIS     0.15E+00    1.0     0.00001174      -264.1579386106 -4.34E-07
     9 OT DIIS     0.15E+00    1.0     0.00000524      -264.1579386671 -5.64E-08
    10 OT DIIS     0.15E+00    1.0     0.00000260      -264.1579386778 -1.07E-08
    11 OT DIIS     0.15E+00    1.0     0.00000098      -264.1579386808 -3.01E-09
    12 OT DIIS     0.15E+00    1.0     0.00000034      -264.1579386812 -4.01E-10
    13 OT DIIS     0.15E+00    1.0     0.00000016      -264.1579386812 -4.49E-11
    14 OT DIIS     0.15E+00    1.0     0.00000007      -264.1579386812  7.96E-12
    15 OT DIIS     0.15E+00    1.0     0.00000004      -264.1579386812  1.43E-11
    16 OT DIIS     0.15E+00    1.0     0.00000002      -264.1579386812  1.15E-11
    17 OT DIIS     0.15E+00    1.0     7.3249E-09      -264.1579386812  3.30E-12

  *** SCF run converged in    17 steps ***


  Electronic density on regular grids:        -30.6426442182       11.3573557818
  Core density on regular grids:               42.0000000000       -0.0000000000
  Hard and soft densities (Lebedev):          -98.5996898609      -87.2423340751
  Total Rho_soft + Rho1_hard - Rho1_soft      -42.0000000040
  Total charge density (r-space):              -0.0000000040
  Total Rho_soft + Rho0_soft (g-space):        -0.0000000297

  Overlap energy of the core charge distribution:               0.00002881898770
  Self energy of the core charge distribution:               -217.69203579805162
  Core Hamiltonian energy:                                    -41.72407807298852
  Hartree energy:                                             109.64291610295697
  Exchange-correlation energy:                                -11.23651774184393
  Hartree-Fock Exchange energy:                                -7.06269203499067
  Dispersion energy:                                           -0.00395842260260

  GAPW| Exc from hard and soft atomic rho1:                   -18.55546956299557
  GAPW| local Eh = 1 center integrals:                        -77.52613196968304

  Total energy:                                              -264.15793868121125

  outer SCF iter =    1 RMS gradient =   0.73E-08 energy =       -264.1579386812
  outer SCF loop converged in   1 iterations or   17 steps


 !-----------------------------------------------------------------------------!
                     Mulliken Population Analysis

 #  Atom  Element  Kind  Atomic population                           Net charge
       1     n        1          7.138154                             -0.138154
       2     n        1          7.196349                             -0.196349
       3     c        2          6.019596                             -0.019596
       4     c        2          6.036174                             -0.036174
       5     c        2          6.080212                             -0.080212
       6     c        2          6.060935                             -0.060935
       7     h        3          0.880974                              0.119026
       8     h        3          0.874884                              0.125116
       9     h        3          0.859455                              0.140545
      10     h        3          0.853268                              0.146732
 # Total charge                             42.000000                  0.000000

 !-----------------------------------------------------------------------------!

 !-----------------------------------------------------------------------------!
                           Hirshfeld Charges

  #Atom  Element  Kind  Ref Charge     Population                    Net charge
      1       n      1       7.000          7.274                        -0.274
      2       n      1       7.000          7.325                        -0.325
      3       c      2       6.000          6.345                        -0.345
      4       c      2       6.000          6.341                        -0.341
      5       c      2       6.000          6.325                        -0.325
      6       c      2       6.000          6.347                        -0.347
      7       h      3       1.000          0.507                         0.493
      8       h      3       1.000          0.512                         0.488
      9       h      3       1.000          0.503                         0.497
     10       h      3       1.000          0.511                         0.489

  Total Charge                                                            0.010
 !-----------------------------------------------------------------------------!

 *******************************************************************************
 **                                                                           **
 **         ######## #######   #######   ######## #######  ########           **
 **            ##    ##     ## ##     ## ##       ##   ##     ##              **
 **            ##    ##     ## ##     ## ######   #######     ##              **
 **            ##    ##     ## ##     ## ##       ##          ##              **
 **            ##    #######   #######   ##       ##          ##              **
 **                                                                           **
 *******************************************************************************
 KERNEL|                                                                    FULL
 FUNCTIONAL| BECKE88:
 FUNCTIONAL| A. Becke, Phys. Rev. A 38, 3098 (1988) {LDA version}               
 FUNCTIONAL| LYP:
 FUNCTIONAL| C. Lee, W. Yang, R.G. Parr, Phys. Rev. B, 37, 785 (1988) {LDA versi
 FUNCTIONAL| on}                                                                
 FUNCTIONAL| VWN:
 FUNCTIONAL| S. H. Vosko, L. Wilk and M. Nusair, Can. J. Phys. 58, 1200 (1980) {
 FUNCTIONAL| LDA version}                                                       
 FUNCTIONAL| XALPHA:
 FUNCTIONAL| Dirac/Slater local exchange; parameter=  0.666 {LDA}               
 KERNEL|                                                          Exact Exchange
 KERNEL| Spin symmetry of excitations                                    Singlet
 TDDFPT| Number of states calculated                                           9
 TDDFPT| Number of Davidson iterations                                       100
 TDDFPT| Davidson iteration convergence                                0.367E-09
 TDDFPT| Max. number of Krylov space vectors                                5000
 TDDFPT| Molecular Orbitals:        Spin       AOs       Occ      Virt     Total
 TDDFPT|                               1       210        21       189       210
 
 -------------------------------------------------------------------------------
 -                            TDDFPT Initial Guess                             -
 -------------------------------------------------------------------------------
          State         Occupied      ->      Virtual          Excitation
          number         orbital              orbital          energy (eV)
 -------------------------------------------------------------------------------
             1               21                   22              3.71734
             2               21                   23              4.80888
             3               20                   22              5.24426
             4               19                   22              5.81861
             5               20                   23              6.33581
             6               19                   23              6.91016
             7               21                   24              7.36746
             8               18                   22              7.50142
             9               21                   25              7.61505

      Number of active states:                                       3969
 -------------------------------------------------------------------------------
 
 -------------------------------------------------------------------------------
 -                      TDDFPT WAVEFUNCTION OPTIMIZATION                       -
 -------------------------------------------------------------------------------

          Step            Time         Convergence           Conv. states
 -------------------------------------------------------------------------------

    State    Exc. energy (eV)      Convergence (eV)
        1       2.3215735            -1.3958E+00
        2       3.5210093            -1.2879E+00
        3       4.5067803            -7.3748E-01
        4       5.5396096            -2.7900E-01
        5       5.7687001            -5.6711E-01
        6       6.4832072            -4.2695E-01
        7       6.7082493            -6.5921E-01
        8       7.4182451            -8.3178E-02
        9       9.8689947             2.2539E+00

             1            10.5          8.2831E-02                      0

    State    Exc. energy (eV)      Convergence (eV)
        1       2.2957779            -2.5796E-02
        2       3.4642706            -5.6739E-02
        3       4.4625836            -4.4197E-02
        4       5.4286218            -1.1099E-01
        5       5.5780070            -1.9069E-01
        6       5.6574765            -8.2573E-01
        7       6.5307928            -1.7746E-01
        8       6.7367465            -6.8150E-01
        9       8.5567304            -1.3123E+00

             2            10.5          4.8225E-02                      0

    State    Exc. energy (eV)      Convergence (eV)
        1       2.2931724            -2.6055E-03
        2       3.4599850            -4.2855E-03
        3       4.4599917            -2.5919E-03
        4       5.4136949            -1.4927E-02
        5       5.5156863            -6.2321E-02
        6       5.6421784            -1.5298E-02
        7       6.5009665            -2.9826E-02
        8       6.7058707            -3.0876E-02
        9       7.2212896            -1.3354E+00

             3            10.5          4.9077E-02                      0

    State    Exc. energy (eV)      Convergence (eV)
        1       2.2931232            -4.9264E-05
        2       3.4598195            -1.6551E-04
        3       4.4599477            -4.4002E-05
        4       5.4132365            -4.5835E-04
        5       5.5128041            -2.8822E-03
        6       5.6416275            -5.5083E-04
        7       6.4945722            -6.3943E-03
        8       6.6984060            -7.4647E-03
        9       6.9555019            -2.6579E-01

             4            10.5          9.7675E-03                      0

    State    Exc. energy (eV)      Convergence (eV)
        1       2.2931225            -6.2217E-07
        2       3.4598176            -1.9035E-06
        3       4.4599470            -6.8747E-07
        4       5.4132276            -8.8896E-06
        5       5.5127345            -6.9558E-05
        6       5.6416114            -1.6116E-05
        7       6.4942737            -2.9851E-04
        8       6.6979873            -4.1868E-04
        9       6.9475888            -7.9131E-03

             5            10.5          2.9080E-04                      0

    State    Exc. energy (eV)      Convergence (eV)
        1       2.2931225            -5.5722E-09
        2       3.4598176            -1.6567E-08
        3       4.4599470            -9.3709E-09
        4       5.4132274            -2.1456E-07
        5       5.5127329            -1.6211E-06
        6       5.6416112            -2.5554E-07
        7       6.4942657            -8.0108E-06
        8       6.6979626            -2.4707E-05
        9       6.9469450            -6.4375E-04

             6            10.5          2.3658E-05                      2

    State    Exc. energy (eV)      Convergence (eV)
        1       2.2931225            -3.9969E-11
        2       3.4598176            -1.3178E-10
        3       4.4599470            -1.2244E-10
        4       5.4132274            -2.6354E-09
        5       5.5127329            -2.6250E-08
        6       5.6416112            -2.8320E-09
        7       6.4942655            -2.0248E-07
        8       6.6979614            -1.2060E-06
        9       6.9469122            -3.2859E-05

             7            10.5          1.2076E-06                      5

    State    Exc. energy (eV)      Convergence (eV)
        1       2.2931225            -1.6049E-13
        2       3.4598176            -1.1457E-12
        3       4.4599470            -9.8260E-13
        4       5.4132274            -2.5225E-11
        5       5.5127329            -3.9130E-10
        6       5.6416112            -3.9436E-11
        7       6.4942655            -3.4685E-09
        8       6.6979614            -2.7011E-08
        9       6.9469112            -9.4335E-07

             8            10.5          3.4668E-08                      7

    State    Exc. energy (eV)      Convergence (eV)
        1       2.2931225             5.6645E-15
        2       3.4598176            -1.2084E-14
        3       4.4599470            -5.2869E-15
        4       5.4132274            -2.6057E-13
        5       5.5127329            -3.5475E-12
        6       5.6416112            -5.2944E-13
        7       6.4942655            -7.3434E-11
        8       6.6979614            -4.9718E-10
        9       6.9469112            -2.2378E-08

             9            10.5          8.2237E-10                      8

    State    Exc. energy (eV)      Convergence (eV)
        1       2.2931225            -1.4728E-14
        2       3.4598176             3.0211E-15
        3       4.4599470             6.0421E-15
        4       5.4132274            -3.7763E-15
        5       5.5127329            -3.1721E-14
        6       5.6416112            -6.0421E-15
        7       6.4942655            -9.3804E-13
        8       6.6979614            -8.3200E-12
        9       6.9469112            -5.5867E-10

            10            10.4          2.0531E-11                      9
 ------------------------- Restart Davidson iterations -------------------------

    State    Exc. energy (eV)      Convergence (eV)
        1       2.2931225             3.3987E-15
        2       3.4598176            -6.0421E-15
        3       4.4599470             3.7763E-15
        4       5.4132274             5.2869E-15
        5       5.5127329             1.5861E-14
        6       5.6416112            -1.5105E-15
        7       6.4942655             6.7974E-14
        8       6.6979614             2.1903E-14
        9       6.9469112             3.0211E-15

            11            10.4          2.4980E-15                      9
 
 -------------------------------------------------------------------------------
 -  TDDFPT run converged in 11 iteration(s) 
 -------------------------------------------------------------------------------

 R-TDDFPT states of multiplicity 1
 Transition dipoles calculated using length formulation

         State    Excitation        Transition dipole (a.u.)        Oscillator
         number   energy (eV)       x           y           z     strength (a.u.)
         ------------------------------------------------------------------------
 TDDFPT|      1       2.29312  -7.8015E-03  1.9039E-02  3.7541E-02   1.02959E-04
 TDDFPT|      2       3.45982  -1.0465E-01 -2.7837E-02 -6.1886E-03   9.97314E-04
 TDDFPT|      3       4.45995  -4.4592E-02 -5.4803E-03 -7.0096E-02   7.57426E-04
 TDDFPT|      4       5.41323  -7.1322E-03  1.0800E-01  5.4828E-01   4.14213E-02
 TDDFPT|      5       5.51273  -2.6932E-02  6.9603E-01  6.9190E-01   1.30184E-01
 TDDFPT|      6       5.64161   2.5531E-02 -4.5614E-01  3.6323E-01   4.70838E-02
 TDDFPT|      7       6.49427  -4.0043E-02  1.7606E-01  4.7340E-01   4.08445E-02
 TDDFPT|      8       6.69796   2.0625E-02 -5.2095E-01  1.4731E-01   4.81644E-02
 TDDFPT|      9       6.94691  -3.3548E-02  3.6345E-01 -1.9271E-01   2.89940E-02

 TDDFPT : CheckSum  =  0.597036E+00
 
 -------------------------------------------------------------------------------
 -                            Excitation analysis                              -
 -------------------------------------------------------------------------------
        State             Occupied              Virtual             Excitation
        number             orbital              orbital             amplitude
 -------------------------------------------------------------------------------
             1   2.29312 eV
                                21                   22               0.998095
             2   3.45982 eV
                                21                   23               0.994483
                                19                   22               0.064260
             3   4.45995 eV
                                19                   22               0.977999
                                20                   22               0.187650
                                21                   23              -0.058190
             4   5.41323 eV
                                19                   23               0.812203
                                20                   22              -0.405627
                                20                   23               0.317961
                                18                   22               0.184837
                                21                   26               0.083569
                                19                   22               0.072030
                                21                   30               0.067332
                                21                   28               0.061130
             5   5.51273 eV
                                20                   22              -0.799108
                                19                   23              -0.395264
                                21                   24              -0.171463
                                19                   22               0.159405
                                21                   26              -0.152042
                                21                   30               0.141667
                                20                   23              -0.133762
                                21                   27               0.130063
                                18                   23               0.115604
                                21                   28               0.086306
                                16                   30               0.061310
                                21                   25               0.057352
             6   5.64161 eV
                                20                   23               0.752212
                                18                   22               0.520402
                                19                   23              -0.367759
                                21                   25              -0.104553
                                20                   22               0.055250
             7   6.49427 eV
                                21                   24               0.898679
                                21                   25               0.264215
                                21                   26               0.258787
                                19                   23              -0.118141
                                20                   22              -0.114406
                                21                   28               0.085035
                                18                   23               0.068370
                                18                   22               0.055837
             8   6.69796 eV
                                21                   25               0.852525
                                21                   24              -0.338508
                                21                   26               0.290966
                                18                   22               0.184396
                                21                   27              -0.096606
                                20                   22               0.085517
                                21                   29              -0.064434
                                19                   23              -0.062663
             9   6.94691 eV
                                21                   26               0.798058
                                21                   25              -0.372528
                                21                   27              -0.284857
                                21                   29              -0.194598
                                21                   28               0.165946
                                21                   24              -0.164902
                                19                   23              -0.124221
                                16                   22               0.082552
                                20                   22              -0.080531
                                18                   22              -0.073213
                                18                   23               0.063004
 -------------------------------------------------------------------------------
 
 -------------------------------------------------------------------------------
 -                            Natural Orbital analysis                         -
 -------------------------------------------------------------------------------
   STATE NR.      1             2.29312 eV
     Particle-Hole state: 1   Spin:1     Eigenvalue: 0.99867   Sum Eigv: 0.99867
   STATE NR.      2             3.45982 eV
     Particle-Hole state: 1   Spin:1     Eigenvalue: 0.99086   Sum Eigv: 0.99086
   STATE NR.      3             4.45995 eV
     Particle-Hole state: 1   Spin:1     Eigenvalue: 0.99308   Sum Eigv: 0.99308
   STATE NR.      4             5.41323 eV
     Particle-Hole state: 1   Spin:1     Eigenvalue: 0.77283   Sum Eigv: 0.77283
     Particle-Hole state: 2   Spin:1     Eigenvalue: 0.19871   Sum Eigv: 0.97154
     Particle-Hole state: 3   Spin:1     Eigenvalue: 0.02270   Sum Eigv: 0.99424
   STATE NR.      5             5.51273 eV
     Particle-Hole state: 1   Spin:1     Eigenvalue: 0.67552   Sum Eigv: 0.67552
     Particle-Hole state: 2   Spin:1     Eigenvalue: 0.19612   Sum Eigv: 0.87165
     Particle-Hole state: 3   Spin:1     Eigenvalue: 0.11061   Sum Eigv: 0.98226
   STATE NR.      6             5.64161 eV
     Particle-Hole state: 1   Spin:1     Eigenvalue: 0.71648   Sum Eigv: 0.71648
     Particle-Hole state: 2   Spin:1     Eigenvalue: 0.26328   Sum Eigv: 0.97976
   STATE NR.      7             6.49427 eV
     Particle-Hole state: 1   Spin:1     Eigenvalue: 0.95647   Sum Eigv: 0.95647
     Particle-Hole state: 2   Spin:1     Eigenvalue: 0.02487   Sum Eigv: 0.98134
   STATE NR.      8             6.69796 eV
     Particle-Hole state: 1   Spin:1     Eigenvalue: 0.94280   Sum Eigv: 0.94280
     Particle-Hole state: 2   Spin:1     Eigenvalue: 0.04722   Sum Eigv: 0.99003
   STATE NR.      9             6.94691 eV
     Particle-Hole state: 1   Spin:1     Eigenvalue: 0.95434   Sum Eigv: 0.95434
     Particle-Hole state: 2   Spin:1     Eigenvalue: 0.02671   Sum Eigv: 0.98106
 -------------------------------------------------------------------------------
 Ground state orbital alignment:         1.000000[MinVal]      1.000000[Average]
 Excitation vector alignment:                                           1.000000
 Calculate properties for state:   1      with excitation energy      2.29312 eV

  HFX_MEM_INFO| Number of cart. primitive DERIV's calculated:        10588815816
  HFX_MEM_INFO| Number of sph. DERIV's calculated:                    2754541812
  HFX_MEM_INFO| Number of sph. DERIV's stored in-core:                         0
  HFX_MEM_INFO| Number of sph. DERIV's calculated on the fly:         2754541812
  HFX_MEM_INFO| Total memory consumption DERIV's RAM [MiB]:                    0
  HFX_MEM_INFO| Whereof max-vals [MiB]:                                        1
[...]
 # MPI messages exchanged                  144480
 MPI messages size (bytes):
  total size                         1.099731E+09
  min size                           0.000000E+00
  max size                          31.744000E+03
  average size                       7.611646E+03
 MPI breakdown and total messages size (bytes):
             size <=      128               80979                        0
       128 < size <=     8192               11703                 80162712
      8192 < size <=    32768               51798               1019567808
     32768 < size <=   131072                   0                        0
    131072 < size <=  4194304                   0                        0
   4194304 < size <= 16777216                   0                        0
  16777216 < size                               0                        0
 -------------------------------------------------------------------------------
 -                                                                             -
 -                      DBCSR MESSAGE PASSING PERFORMANCE                      -
 -                                                                             -
 -------------------------------------------------------------------------------
 ROUTINE             CALLS      AVE VOLUME [Bytes]
 MP_Bcast               28                     12.
 MP_Allreduce         6465                      8.
 MP_Alltoall         25077                   2766.
 MP_ISend            24076                   3582.
 MP_IRecv            24076                   3296.
 -------------------------------------------------------------------------------

 -------------------------------------------------------------------------------
 -                                                                             -
 -                                DBM STATISTICS                               -
 -                                                                             -
 -------------------------------------------------------------------------------
    M  x    N  x    K                                          COUNT     PERCENT
 -------------------------------------------------------------------------------

 -------------------------------------------------------------------------------
 -                                                                             -
 -                                GRID STATISTICS                              -
 -                                                                             -
 -------------------------------------------------------------------------------
 LP    KERNEL             BACKEND                              COUNT     PERCENT
 1     collocate ortho    CPU                                 249636      15.78%
 2     collocate ortho    CPU                                 202776      12.82%
 1     integrate ortho    CPU                                 197540      12.49%
 0     collocate ortho    CPU                                 173169      10.95%
 2     integrate ortho    CPU                                 164552      10.40%
 3     collocate ortho    CPU                                 136533       8.63%
 0     integrate ortho    CPU                                 132519       8.38%
 3     integrate ortho    CPU                                 112099       7.09%
 4     collocate ortho    CPU                                  58788       3.72%
 4     integrate ortho    CPU                                  50116       3.17%
 4     collocate general  CPU                                  20640       1.30%
 5     collocate ortho    CPU                                  17892       1.13%
 5     integrate ortho    CPU                                  15900       1.01%
 4     integrate general  CPU                                  15648       0.99%
 2     collocate general  CPU                                  13760       0.87%
 2     integrate general  CPU                                  10432       0.66%
 6     collocate ortho    CPU                                   4473       0.28%
 6     integrate ortho    CPU                                   4095       0.26%
 5     integrate general  CPU                                    384       0.02%
 3     integrate general  CPU                                    256       0.02%
 7     integrate ortho    CPU                                    168       0.01%
 0     collocate general  CPU                                    160       0.01%
 0     integrate general  CPU                                    160       0.01%
 -------------------------------------------------------------------------------

 MEMORY| Estimated peak process memory [MiB]                                1283

 -------------------------------------------------------------------------------
 ----                             MULTIGRID INFO                            ----
 -------------------------------------------------------------------------------
 count for grid        1:         109543          cutoff [a.u.]          200.00
 count for grid        2:          22507          cutoff [a.u.]           66.67
 count for grid        3:           8627          cutoff [a.u.]           22.22
 count for grid        4:           1858          cutoff [a.u.]            7.41
 total gridlevel count  :         142535

 -------------------------------------------------------------------------------
 -                                                                             -
 -                         MESSAGE PASSING PERFORMANCE                         -
 -                                                                             -
 -------------------------------------------------------------------------------

 ROUTINE             CALLS      AVE VOLUME [Bytes]
 MP_Group                5
 MP_Bcast             4901                 958447.
 MP_Allreduce        14683                 144302.
 MP_Sync              1402
 MP_Alltoall          4224               15035489.
 MP_SendRecv          9645                 233971.
 MP_ISendRecv        15840                 126068.
 MP_Wait             33674
 MP_comm_split          49
 MP_ISend            15367                 822523.
 MP_IRecv            15532                 813410.
 -------------------------------------------------------------------------------


 -------------------------------------------------------------------------------
 -                                                                             -
 -                           R E F E R E N C E S                               -
 -                                                                             -
 -------------------------------------------------------------------------------
 
 CP2K version 2024.1 (Development Version), the CP2K developers group (2024).
 CP2K is freely available from https://www.cp2k.org/ .

 Kuehne,Thomas D.; Iannuzzi,Marcella; Del Ben,Mauro;
 Rybkin,Vladimir V.; Seewald,Patrick; Stein,Frederick; Laino,Teodoro;
 Khaliullin,Rustam Z.; Schuett,Ole; Schiffmann,Florian; Golze,Dorothea;
 Wilhelm,Jan; Chulkov,Sergey; Bani-Hashemian,Mohammad Hossein;
 Weber,Valery; Borstnik,Urban; Taillefumier,Mathieu;
 Jakobovits,Alice Shoshana; Lazzaro,Alfio; Pabst,Hans; Mueller,Tiziano;
 Schade,Robert; Guidon,Manuel; Andermatt,Samuel; Holmberg,Nico;
 Schenter,Gregory K.; Hehn,Anna; Bussy,Augustin; Belleflamme,Fabian;
 Tabacchi,Gloria; Gloess,Andreas; Lass,Michael; Bethune,Iain;
 Mundy,Christopher J.; Plessl,Christian; Watkins,Matt;
 VandeVondele,Joost; Krack,Matthias; Hutter,Juerg. 
 The Journal of Chemical Physics, 152 (19), (2020). 
 CP2K: An electronic structure and molecular dynamics software package -
 Quickstep: Efficient and accurate electronic structure calculations.
 https://doi.org/10.1063/5.0007045

 Goerigk, Lars; Hansen, Andreas; Bauer, Christoph; Ehrlich, Stephan;
 Najibi, Asim; Grimme, Stefan. , 19 (48), (2017). 
 A look at the density functional theory zoo with the advanced GMTKN55 database
 for general main group thermochemistry, kinetics and noncovalent interactions.
 https://doi.org/10.1039/C7CP04913G

 Schuett, Ole; Messmer, Peter; Hutter, Juerg; VandeVondele, Joost. 
 Electronic Structure Calculations on Graphics Processing Units, John
 Wiley & Sons, Ltd, 173-190 (2016). 
 GPU-Accelerated Sparse Matrix-Matrix Multiplication for
 Linear Scaling Density Functional Theory.
 https://doi.org/10.1002/9781118670712.ch8

 Heinecke, A; Henry, G; Hutchinson, M; Pabst, H. 
 Proceedings of Intl. Supercomputing Conference, 981-991 (2016). 
 LIBXSMM: Accelerating Small Matrix Multiplications
 by Runtime Code Generation.
 https://doi.org/10.1109/SC.2016.83

 Borstnik, U; VandeVondele, J; Weber, V; Hutter, J. 
 PARALLEL COMPUTING, 40 (5-6), 47-58 (2014). 
 Sparse matrix multiplication: The distributed block-compressed sparse
 row library.
 https://doi.org/10.1016/j.parco.2014.03.012

 Hutter, J; Iannuzzi, M; Schiffmann, F; VandeVondele, J. 
 WIREs Comput Mol Sci., 4 (1), 15-25 (2014). 
 CP2K: atomistic simulations of condensed matter systems.
 https://doi.org/10.1002/wcms.1159

 Grimme, S; Ehrlich, S; Goerigk, L. 
 JOURNAL OF COMPUTATIONAL CHEMISTRY, 32, 1456 (2011). 
 Effect of the damping function in dispersion corrected density functional theory.
 https://doi.org/10.1002/jcc.21759

 Grimme, S; Antony, J; Ehrlich, S; Krieg, H. 
 JOURNAL OF CHEMICAL PHYSICS, 132 (15), 154104 (2010). 
 A consistent and accurate ab initio parametrization of density
 functional dispersion correction (DFT-D) for the 94 elements H-Pu.
 https://doi.org/10.1063/1.3382344

 Guidon, M; Hutter, J; VandeVondele, J. 
 JOURNAL OF CHEMICAL THEORY AND COMPUTATION, 5 (11), 3010-3021 (2009). 
 Robust Periodic Hartree-Fock Exchange for Large-Scale Simulations Using
 Gaussian Basis Sets.
 https://doi.org/10.1021/ct900494g

 Guidon, M; Schiffmann, F; Hutter, J; VandeVondele, J. 
 JOURNAL OF CHEMICAL PHYSICS, 128 (21), 214104 (2008). 
 Ab initio molecular dynamics using hybrid density functionals.
 https://doi.org/10.1063/1.2931945

 VandeVondele, J; Hutter, J. 
 JOURNAL OF CHEMICAL PHYSICS, 127 (11), 114105 (2007). 
 Gaussian basis sets for accurate calculations on molecular systems in
 gas and condensed phases.
 https://doi.org/10.1063/1.2770708

 Frigo, M; Johnson, SG. 
 PROCEEDINGS OF THE IEEE, 93 (2), 216-231 (2005). 
 The design and implementation of FFTW3.
 https://doi.org/10.1109/JPROC.2004.840301

 Iannuzzi, M; Chassaing, T; Wallman, T; Hutter, J. 
 CHIMIA, 59 (7-8), 499-503 (2005). 
 Ground and excited state density functional calculations with the
 Gaussian and augmented-plane-wave method.
 https://doi.org/10.2533/000942905777676164

 VandeVondele, J; Hutter, J. 
 JOURNAL OF CHEMICAL PHYSICS, 118 (10), 4365-4369 (2003). 
 An efficient orbital transformation method for electronic structure
 calculations.
 https://doi.org/10.1063/1.1543154

 Martin,Richard L.. 
 The Journal of Chemical Physics, 118 (11), 4775-4777 (2003). 
 Natural transition orbitals.
 https://doi.org/10.1063/1.1558471

 Lippert, G; Hutter, J; Parrinello, M. 
 THEORETICAL CHEMISTRY ACCOUNTS, 103 (2), 124-140 (1999). 
 The Gaussian and augmented-plane-wave density functional method for ab
 initio molecular dynamics simulations.
 https://doi.org/10.1007/s002140050523

 Krack, M; Parrinello, M. 
 PHYSICAL CHEMISTRY CHEMICAL PHYSICS, 2 (10), 2105-2112 (2000). 
 All-electron ab-initio molecular dynamics.
 https://doi.org/10.1039/b001167n

 Martyna, GJ; Tuckerman, ME. 
 JOURNAL OF CHEMICAL PHYSICS, 110 (6), 2810-2821 (1999). 
 A reciprocal space based method for treating long range interactions in
 ab initio and force-field-based calculations in clusters.
 https://doi.org/10.1063/1.477923

 BECKE, AD. PHYSICAL REVIEW A, 38 (6), 3098-3100 (1988). 
 DENSITY-FUNCTIONAL EXCHANGE-ENERGY APPROXIMATION WITH CORRECT
 ASYMPTOTIC-BEHAVIOR.
 https://doi.org/10.1103/PhysRevA.38.3098

 LEE, CT; YANG, WT; PARR, RG. 
 PHYSICAL REVIEW B, 37 (2), 785-789 (1988). 
 DEVELOPMENT OF THE COLLE-SALVETTI CORRELATION-ENERGY FORMULA INTO A
 FUNCTIONAL OF THE ELECTRON-DENSITY.
 https://doi.org/10.1103/PhysRevB.37.785

 VOSKO, SH; WILK, L; NUSAIR, M. 
 CANADIAN JOURNAL OF PHYSICS, 58 (8), 1200-1211 (1980). 
 ACCURATE SPIN-DEPENDENT ELECTRON LIQUID CORRELATION ENERGIES FOR LOCAL
 SPIN-DENSITY CALCULATIONS - A CRITICAL ANALYSIS.
 https://doi.org/10.1139/p80-159


 -------------------------------------------------------------------------------
 -                                                                             -
 -                                T I M I N G                                  -
 -                                                                             -
 -------------------------------------------------------------------------------
 SUBROUTINE                       CALLS  ASD         SELF TIME        TOTAL TIME
                                MAXIMUM       AVERAGE  MAXIMUM  AVERAGE  MAXIMUM
 CP2K                                 1  1.0    0.014    0.018  278.181  278.181
 qs_forces                            1  2.0    0.000    0.001  277.187  277.187
 qs_energies                          1  3.0    0.000    0.000  177.296  177.296
 qs_energies_properties               1  4.0    0.000    0.000  154.905  154.905
 tddfpt                               1  5.0    0.000    0.000  154.905  154.905
 tddfpt_energies                      1  6.0    0.000    0.000  116.112  116.112
 tddfpt_davidson_solver               2  7.0    0.002    0.003  115.363  115.363
 tddfpt_compute_Aop_evects           11  8.0    0.000    0.000  115.007  115.007
 excited_state_energy                 2  3.5    0.001    0.002   87.009   87.009
 fft_wrap_pw1pw2                   3820 12.1    0.042    0.053   74.539   78.991
 fft_wrap_pw1pw2_200               2667 13.4    2.243    2.340   72.204   76.723
 fhxc_kernel                         11  9.0    0.004    0.004   73.113   73.114
 response_equation                    1  4.0    0.000    0.000   65.769   65.769
 linres_solver                        1  5.0    0.001    0.003   65.735   65.735
 apply_op                            46  6.0    0.001    0.001   65.658   65.658
 integrate_four_center              265 10.5    0.056    0.060   60.260   60.270
 fft3d_ps                          3820 14.1   30.662   33.311   54.905   59.448
 integrate_four_center_main         265 11.5    0.023    0.031   55.158   57.114
 integrate_four_center_bin        25175 12.5   55.135   57.095   55.135   57.095
 derivatives_four_center              4  8.5    0.003    0.005   50.781   53.844
 derivatives_four_center_main         4  9.5    0.000    0.001   50.694   53.758
 derivatives_four_center_bin        416 10.5   46.442   52.016   46.442   52.016
 xc_pw_derive                      1386 12.4    0.011    0.012   41.632   43.780
 tddfpt_apply_hfx                    11  9.0    0.001    0.002   41.782   41.782
 tddft_hfx_matrix                   198 10.0    0.004    0.005   41.362   41.363
 tddfpt_forces_main                   1  6.0    0.000    0.000   38.714   38.714
 apply_op_2_dft                      45  7.0    0.003    0.003   38.524   38.609
 tddfpt_forces                        1  7.0    0.000    0.000   37.397   37.397
 tddfpt_force_direct                  1  8.0    0.000    0.000   36.789   36.789
 tddfpt_kernel_force                  1  9.0    0.000    0.000   36.777   36.777
 fhxc_force                           1 10.0    0.001    0.001   36.777   36.777
 prepare_gapw_den                   219  8.7    0.005    0.006   34.985   35.182
 rebuild_ks_matrix                   18  6.8    0.000    0.000   32.802   32.803
 qs_ks_build_kohn_sham_matrix        18  7.8    0.003    0.003   32.802   32.803
 xc_pw_divergence                   207 12.3    0.005    0.006   25.421   27.879
 calculate_rho_elec                 213  9.5    0.350    0.373   23.595   23.600
 qs_rho_update_rho_low              208  8.6    0.002    0.002   23.563   23.566
 tddfpt_apply_xc_analytic            99 10.0    1.149    1.276   23.151   23.344
 scf_env_do_scf                       1  4.0    0.000    0.000   22.185   22.185
 qs_fxc_analytic                     46  8.0    0.002    0.002   21.384   21.496
 response_force                       1  4.0    0.005    0.006   21.239   21.239
 hfx_ks_matrix                       18  8.8    0.001    0.001   20.476   20.476
 calculate_rho0_atom                645  9.7   19.207   20.440   19.207   20.440
 xc_rho_set_and_dset_create         109 12.0    1.983    2.274   16.674   20.004
 qs_ks_update_qs_env                 19  6.0    0.000    0.000   19.980   19.980
 xc_calc_2nd_deriv_analytical       762 11.1    1.604    1.780   19.279   19.741
 density_rs2pw                      213 10.5    0.009    0.009   18.397   19.273
 mp_alltoall_z22v                  3820 16.1   13.655   18.880   13.655   18.880
 yz_to_x                           1954 15.2    4.333    4.796   13.404   17.795
 integrate_v_rspace                 171  9.3    0.003    0.004   16.411   17.237
 qs_vxc_create                       61 11.7    0.001    0.001   17.066   17.075
 xc_vxc_pw_create                    61 12.7    0.175    0.189   17.065   17.074
 scf_env_do_scf_inner_loop           17  5.0    0.000    0.001   16.408   16.409
 xc_calc_2nd_deriv                   47  8.9    0.553    0.614   13.626   15.608
 tddfpt_apply_coulomb                99 10.0    0.002    0.002   12.218   13.712
 x_to_yz                           1866 15.0    6.195    6.964   10.779   12.827
 qs_ks_update_qs_env_forces           1  3.0    0.000    0.000   12.823   12.824
 potential_pw2rs                    171 10.3    0.017    0.018   11.282   12.102
 qs_fgxc_gdiff                        1 11.0    0.000    0.000   11.955   11.956
 qs_fxc_fdiff                         7 12.0    0.001    0.001   11.925   11.926
 put_rho0_on_grid                   215  9.7    0.392    0.440    9.999   10.241
 xc_prep_2nd_deriv                   48  8.9    0.000    0.000    8.370   10.029
 transfer_rs2pw                    1068 11.3    0.011    0.013    8.977    9.865
 apply_hfx                           45  7.0    0.001    0.001    9.488    9.496
 hfx_matrix                          45  8.0    0.001    0.001    9.484    9.491
 pw_gather_p                       1954 14.2    8.378    8.712    8.378    8.712
 transfer_rs2pw_200                 429 12.1    3.432    3.552    7.090    7.980
 integrate_vhg0_rspace              167  9.9    1.809    1.929    7.726    7.739
 transfer_pw2rs                     852 11.2    0.008    0.009    7.470    7.504
 pw_poisson_solve                   168  9.8    0.003    0.003    5.804    7.402
 xc_functional_eval                3220 11.9    0.004    0.008    3.831    7.047
 mp_sum_d                          2262  9.1    4.381    6.851    4.381    6.851
 pw_scatter_p                      1866 14.0    6.217    6.352    6.217    6.352
 grid_collocate_task_list           213 10.5    4.435    6.193    4.435    6.193
 mp_waitany                       15360 13.1    5.202    6.072    5.202    6.072
 transfer_pw2rs_200                 339 12.1    2.903    2.941    5.786    5.848
 init_scf_loop                        1  5.0    0.000    0.000    5.776    5.776
 -------------------------------------------------------------------------------

 The number of warnings for this run is : 0
 
 -------------------------------------------------------------------------------
  **** **** ******  **  PROGRAM ENDED AT                 2024-12-19 00:12:50.058
 ***** ** ***  *** **   PROGRAM RAN ON                               nesh-clk484
 **    ****   ******    PROGRAM RAN BY                                  suphc356
 ***** **    ** ** **   PROGRAM PROCESS ID                               1876618
  **** **  *******  **  PROGRAM STOPPED IN /gxfs_work/cau/suphc356/NEWTONX_proje
                                           ct/Pyrazin_molecule/CP2K_GAPW_B3LYP_d
                                           ef2_TZVP/MOLDYN_OD/TRAJECTORIES/TRAJ2
                                           19/TEMP
