 DBCSR| CPU Multiplication driver                                           XSMM (U)
 DBCSR| Multrec recursion limit                                              512 (U)
 DBCSR| Multiplication stack size                                           1000 (D)
 DBCSR| Maximum elements for images                                    UNLIMITED (U)
 DBCSR| Multiplicative factor virtual images                                   1 (U)
 DBCSR| Use multiplication densification                                       T (D)
 DBCSR| Multiplication size stacks                                             3 (U)
 DBCSR| Use memory pool for CPU allocation                                     F (U)
 DBCSR| Number of 3D layers                                               SINGLE (U)
 DBCSR| Use MPI memory allocation                                              F (U)
 DBCSR| Use RMA algorithm                                                      F (U)
 DBCSR| Use Communication thread                                               T (U)
 DBCSR| Communication thread load                                             87 (D)
 DBCSR| MPI: My process id                                                     0
 DBCSR| MPI: Number of processes                                              16
 DBCSR| OMP: Current number of threads                                         1
 DBCSR| OMP: Max number of threads                                             1
 DBCSR| Split modifier for TAS multiplication algorithm                  1.0E+00 (U)


  **** **** ******  **  PROGRAM STARTED AT               2025-01-06 10:10:45.898
 ***** ** ***  *** **   PROGRAM STARTED ON                           nesh-clk532
 **    ****   ******    PROGRAM STARTED BY                              suphc356
 ***** **    ** ** **   PROGRAM PROCESS ID                                372113
  **** **  *******  **  PROGRAM STARTED IN /gxfs_work/cau/suphc356/NEWTONX_proje
                                           ct/Pyrazin_molecule/CP2K_GAPW_B3LYP_d
                                           ef2_TZVP/MOLDYN_BA_again/TRAJECTORIES
                                           /TRAJ66/TEMP

 CP2K| version string:                 CP2K version 2024.1 (Development Version)
 CP2K| source code revision number:                                  git:990486a
 CP2K| cp2kflags: omp libint fftw3 libxc libgrpp parallel mpi_f08 scalapack cosm
 CP2K|            a xsmm spglib mkl
 CP2K| is freely available from                            https://www.cp2k.org/
 CP2K| Program compiled at                          Mon Mar 11 08:48:45 CET 2024
 CP2K| Program compiled on                                           nesh-login2
 CP2K| Program compiled for                                                local
 CP2K| Data directory path                 /gxfs_work/cau/suphc356/cp2k_gcc/data
 CP2K| Input file name                                                  cp2k.inp

 GLOBAL| Force Environment number                                              1
 GLOBAL| Basis set file name                                     EMSL_BASIS_SETS
 GLOBAL| Potential file name                                      ALL_POTENTIALS
 GLOBAL| MM Potential file name                                     MM_POTENTIAL
 GLOBAL| Coordinate file name                                      __STD_INPUT__
 GLOBAL| Method name                                                        CP2K
 GLOBAL| Project name                                               testsuite_ad
 GLOBAL| Run type                                                   ENERGY_FORCE
 GLOBAL| FFT library                                                       FFTW3
 GLOBAL| Diagonalization library                                       ScaLAPACK
 GLOBAL| DGEMM library                                                      BLAS
 GLOBAL| Orthonormality check for eigenvectors                          DISABLED
 GLOBAL| Matrix multiplication library                                     COSMA
 GLOBAL| All-to-all communication in single precision                          F
 GLOBAL| FFTs using library dependent lengths                                  F
 GLOBAL| Grid backend                                                       AUTO
 GLOBAL| Global print level                                               MEDIUM
 GLOBAL| MPI I/O enabled                                                       T
 GLOBAL| Total number of message passing processes                            16
 GLOBAL| Number of threads for this process                                    1
 GLOBAL| This output is from process                                           0
 GLOBAL| Stack size for threads created by OpenMP (OMP_STACKSIZE)           256M
 GLOBAL| CPU model name                Intel(R) Xeon(R) Gold 6226R CPU @ 2.90GHz
 GLOBAL| CPUID                                                              1003
 GLOBAL| Compiled for CPUID                                                    0

 *** HINT in environment.F:920 :: The compiler target flags (generic) used ***
 *** to build this binary cannot exploit all extensions of this CPU model  ***
 *** (x86_avx512). Consider compiler target flags as part of FCFLAGS and   ***
 *** CFLAGS (ARCH file).                                                   ***


 MEMORY| system memory details [Kb]
 MEMORY|                        rank 0           min           max       average
 MEMORY| MemTotal            196683224     196683224     196683224     196683224
 MEMORY| MemFree             171600436     171600436     171600436     171600436
 MEMORY| Buffers                790576        790576        790576        790576
 MEMORY| Cached                1353620       1353620       1353620       1353620
 MEMORY| Slab                  8404152       8404152       8404152       8404152
 MEMORY| SReclaimable           272768        272768        272768        272768
 MEMORY| MemLikelyFree       174017400     174017400     174017400     174017400


 *** Fundamental physical constants (SI units) ***

 *** Literature: B. J. Mohr and B. N. Taylor,
 ***             CODATA recommended values of the fundamental physical
 ***             constants: 2006, Web Version 5.1
 ***             http://physics.nist.gov/constants

 Speed of light in vacuum [m/s]                             2.99792458000000E+08
 Magnetic constant or permeability of vacuum [N/A**2]       1.25663706143592E-06
 Electric constant or permittivity of vacuum [F/m]          8.85418781762039E-12
 Planck constant (h) [J*s]                                  6.62606896000000E-34
 Planck constant (h-bar) [J*s]                              1.05457162825177E-34
 Elementary charge [C]                                      1.60217648700000E-19
 Electron mass [kg]                                         9.10938215000000E-31
 Electron g factor [ ]                                     -2.00231930436220E+00
 Proton mass [kg]                                           1.67262163700000E-27
 Fine-structure constant                                    7.29735253760000E-03
 Rydberg constant [1/m]                                     1.09737315685270E+07
 Avogadro constant [1/mol]                                  6.02214179000000E+23
 Boltzmann constant [J/K]                                   1.38065040000000E-23
 Atomic mass unit [kg]                                      1.66053878200000E-27
 Bohr radius [m]                                            5.29177208590000E-11

 *** Conversion factors ***

 [u] -> [a.u.]                                              1.82288848426455E+03
 [Angstrom] -> [Bohr] = [a.u.]                              1.88972613288564E+00
 [a.u.] = [Bohr] -> [Angstrom]                              5.29177208590000E-01
 [a.u.] -> [s]                                              2.41888432650478E-17
 [a.u.] -> [fs]                                             2.41888432650478E-02
 [a.u.] -> [J]                                              4.35974393937059E-18
 [a.u.] -> [N]                                              8.23872205491840E-08
 [a.u.] -> [K]                                              3.15774647902944E+05
 [a.u.] -> [kJ/mol]                                         2.62549961709828E+03
 [a.u.] -> [kcal/mol]                                       6.27509468713739E+02
 [a.u.] -> [Pa]                                             2.94210107994716E+13
 [a.u.] -> [bar]                                            2.94210107994716E+08
 [a.u.] -> [atm]                                            2.90362800883016E+08
 [a.u.] -> [eV]                                             2.72113838565563E+01
 [a.u.] -> [Hz]                                             6.57968392072181E+15
 [a.u.] -> [1/cm] (wave numbers)                            2.19474631370540E+05
 [a.u./Bohr**2] -> [1/cm]                                   5.14048714338585E+03
 

 CELL_TOP| Volume [angstrom^3]:                                      2744.000000
 CELL_TOP| Vector a [angstrom    14.000     0.000     0.000   |a| =    14.000000
 CELL_TOP| Vector b [angstrom     0.000    14.000     0.000   |b| =    14.000000
 CELL_TOP| Vector c [angstrom     0.000     0.000    14.000   |c| =    14.000000
 CELL_TOP| Angle (b,c), alpha [degree]:                                90.000000
 CELL_TOP| Angle (a,c), beta  [degree]:                                90.000000
 CELL_TOP| Angle (a,b), gamma [degree]:                                90.000000
 CELL_TOP| Numerically orthorhombic:                                         YES
 CELL_TOP| Periodicity                                                      NONE

 CELL| Volume [angstrom^3]:                                          2744.000000
 CELL| Vector a [angstrom]:      14.000     0.000     0.000   |a| =    14.000000
 CELL| Vector b [angstrom]:       0.000    14.000     0.000   |b| =    14.000000
 CELL| Vector c [angstrom]:       0.000     0.000    14.000   |c| =    14.000000
 CELL| Angle (b,c), alpha [degree]:                                    90.000000
 CELL| Angle (a,c), beta  [degree]:                                    90.000000
 CELL| Angle (a,b), gamma [degree]:                                    90.000000
 CELL| Numerically orthorhombic:                                             YES
 CELL| Periodicity                                                          NONE

 CELL_REF| Volume [angstrom^3]:                                      2744.000000
 CELL_REF| Vector a [angstrom    14.000     0.000     0.000   |a| =    14.000000
 CELL_REF| Vector b [angstrom     0.000    14.000     0.000   |b| =    14.000000
 CELL_REF| Vector c [angstrom     0.000     0.000    14.000   |c| =    14.000000
 CELL_REF| Angle (b,c), alpha [degree]:                                90.000000
 CELL_REF| Angle (a,c), beta  [degree]:                                90.000000
 CELL_REF| Angle (a,b), gamma [degree]:                                90.000000
 CELL_REF| Numerically orthorhombic:                                         YES
 CELL_REF| Periodicity                                                      NONE

 *******************************************************************************
 *******************************************************************************
 **                                                                           **
 **     #####                         ##              ##                      **
 **    ##   ##            ##          ##              ##                      **
 **   ##     ##                       ##            ######                    **
 **   ##     ##  ##   ##  ##   #####  ##  ##   ####   ##    #####    #####    **
 **   ##     ##  ##   ##  ##  ##      ## ##   ##      ##   ##   ##  ##   ##   **
 **   ##  ## ##  ##   ##  ##  ##      ####     ###    ##   ######   ######    **
 **    ##  ###   ##   ##  ##  ##      ## ##      ##   ##   ##       ##        **
 **     #######   #####   ##   #####  ##  ##  ####    ##    #####   ##        **
 **           ##                                                    ##        **
 **                                                                           **
 **                                                ... make the atoms dance   **
 **                                                                           **
 **            Copyright (C) by CP2K developers group (2000-2024)             **
 **                      J. Chem. Phys. 152, 194103 (2020)                    **
 **                                                                           **
 *******************************************************************************

 DFT| Spin restricted Kohn-Sham (RKS) calculation                            RKS
 DFT| Multiplicity                                                             1
 DFT| Number of spin states                                                    1
 DFT| Charge                                                                   0
 DFT| Self-interaction correction (SIC)                                       NO
 DFT| Cutoffs: density                                              1.000000E-10
 DFT|          gradient                                             1.000000E-10
 DFT|          tau                                                  1.000000E-10
 DFT|          cutoff_smoothing_range                               0.000000E+00
 DFT| XC density smoothing                                                  NONE
 DFT| XC derivatives                                                          PW

 FUNCTIONAL| BECKE88:
 FUNCTIONAL| A. Becke, Phys. Rev. A 38, 3098 (1988) {LDA version}               
 FUNCTIONAL| LYP:
 FUNCTIONAL| C. Lee, W. Yang, R.G. Parr, Phys. Rev. B, 37, 785 (1988) {LDA versi
 FUNCTIONAL| on}                                                                
 FUNCTIONAL| VWN:
 FUNCTIONAL| S. H. Vosko, L. Wilk and M. Nusair, Can. J. Phys. 58, 1200 (1980) {
 FUNCTIONAL| LDA version}                                                       
 FUNCTIONAL| XALPHA:
 FUNCTIONAL| Dirac/Slater local exchange; parameter=  0.666 {LDA}               

 vdW POTENTIAL|                                                   Pair Potential
 vdW POTENTIAL|          DFT-D3 (Version 3.1)
 vdW POTENTIAL|          Potential Form: S. Grimme et al, JCP 132: 154104 (2010)
 vdW POTENTIAL|          Zero Damping
 vdW POTENTIAL|          Cutoff Radius [Bohr]:                             37.79
 vdW POTENTIAL|          s6 Scaling Factor:                               1.0000
 vdW POTENTIAL|          sr6 Scaling Factor:                              1.2610
 vdW POTENTIAL|          s8 Scaling Factor:                               1.7030
 vdW POTENTIAL|          Cutoff for CN calculation:                   0.1000E-05

 QS| Method:                                                                GAPW
 QS| Density plane wave grid type                        NON-SPHERICAL FULLSPACE
 QS| Number of grid levels:                                                    4
 QS| Density cutoff [a.u.]:                                                200.0
 QS| Multi grid cutoff [a.u.]: 1) grid level                               200.0
 QS|                           2) grid level                                66.7
 QS|                           3) grid level                                22.2
 QS|                           4) grid level                                 7.4
 QS| Grid level progression factor:                                          3.0
 QS| Relative density cutoff [a.u.]:                                        30.0
 QS| Interaction thresholds: eps_pgf_orb:                                1.0E-07
 QS|                         eps_filter_matrix:                          0.0E+00
 QS|                         eps_core_charge:                            1.0E-16
 QS|                         eps_rho_gspace:                             1.0E-14
 QS|                         eps_rho_rspace:                             1.0E-14
 QS|                         eps_gvg_rspace:                             1.0E-07
 QS|                         eps_ppl:                                    1.0E-02
 QS|                         eps_ppnl:                                   1.0E-09
 QS| GAPW|      One center basis extended with primitives (small:s)
 QS| GAPW|                   eps_fit:                                    1.0E-04
 QS| GAPW|                   eps_iso:                                    1.0E-12
 QS| GAPW|                   eps_svd:                                    1.0E-08
 QS| GAPW|                   eps_cpc:                                    1.0E-14
 QS| GAPW|   atom-r-grid: quadrature:                                     GC_LOG
 QS| GAPW|      atom-s-grid:  max l :                                          6
 QS| GAPW|      max_l_rho0 :                                                   4


 ATOMIC KIND INFORMATION

  1. Atomic kind: n                                     Number of atoms:       2

     Orbital Basis Set                                        Ahlrichs-def2-TZVP

       Number of orbital shell sets:                                          11
       Number of orbital shells:                                              11
       Number of primitive Cartesian functions:                               20
       Number of Cartesian basis functions:                                   36
       Number of spherical basis functions:                                   31
       Norm type:                                                              2

       Normalised Cartesian orbitals:

                        Set   Shell   Orbital            Exponent    Coefficient

                          1       1    1s            19730.800647       0.695604
                                                      2957.895874       1.298610
                                                       673.221336       2.219088
                                                       190.682495       3.463661
                                                        62.295442       4.696756
                                                        22.654161       4.952251

                          2       1    1s                8.979148       2.388068
                                                         3.686300       0.733788

                          3       1    1s                0.846601       0.629027

                          4       1    1s                0.336471       0.314863

                          5       1    1s                0.136477       0.160031

                          6       1    1px              49.200381       2.126481
                                                        11.346791       2.327937
                                                         3.427397       2.048573
                                                         1.178553       1.260732
                          6       1    1py              49.200381       2.126481
                                                        11.346791       2.327937
                                                         3.427397       2.048573
                                                         1.178553       1.260732
                          6       1    1pz              49.200381       2.126481
                                                        11.346791       2.327937
                                                         3.427397       2.048573
                                                         1.178553       1.260732

                          7       1    1px               0.416422       0.476823
                          7       1    1py               0.416422       0.476823
                          7       1    1pz               0.416422       0.476823

                          8       1    1px               0.142608       0.124917
                          8       1    1py               0.142608       0.124917
                          8       1    1pz               0.142608       0.124917

                          9       1    1dx2              1.654000       3.970513
                          9       1    1dxy              1.654000       6.877130
                          9       1    1dxz              1.654000       6.877130
                          9       1    1dy2              1.654000       3.970513
                          9       1    1dyz              1.654000       6.877130
                          9       1    1dz2              1.654000       3.970513

                         10       1    1dx2              0.469000       0.437484
                         10       1    1dxy              0.469000       0.757744
                         10       1    1dxz              0.469000       0.757744
                         10       1    1dy2              0.469000       0.437484
                         10       1    1dyz              0.469000       0.757744
                         10       1    1dz2              0.469000       0.437484

                         11       1    1fx3              1.093000       1.798249
                         11       1    1fx2y             1.093000       4.021007
                         11       1    1fx2z             1.093000       4.021007
                         11       1    1fxy2             1.093000       4.021007
                         11       1    1fxyz             1.093000       6.964588
                         11       1    1fxz2             1.093000       4.021007
                         11       1    1fy3              1.093000       1.798249
                         11       1    1fy2z             1.093000       4.021007
                         11       1    1fyz2             1.093000       4.021007
                         11       1    1fz3              1.093000       1.798249

       Atomic covalent radius [Angstrom]:                                  0.750

       Atomic van der Waals radius [Angstrom]:                             1.550

     The atoms of this atomic kind are PAW atoms (GAPW):
       Hard Gaussian function radius:                                      1.400
       Rho0 radius:                                                        1.400
       Maximum GTO radius used for PAW projector construction:            24.566

     GAPW Soft Basis Set                                 Ahlrichs-def2-TZVP_soft

       Number of orbital shell sets:                                          11
       Number of orbital shells:                                              11
       Number of primitive Cartesian functions:                               11
       Number of Cartesian basis functions:                                   36
       Number of spherical basis functions:                                   31
       Norm type:                                                              2

       Normalised Cartesian orbitals:

                        Set   Shell   Orbital            Exponent    Coefficient

                          1       1    1s         

                          2       1    1s                3.686300       0.733788

                          3       1    1s                0.846601       0.629027

                          4       1    1s                0.336471       0.314863

                          5       1    1s                0.136477       0.160031

                          6       1    1px               3.427397       2.048573
                                                         1.178553       1.260732
                          6       1    1py               3.427397       2.048573
                                                         1.178553       1.260732
                          6       1    1pz               3.427397       2.048573
                                                         1.178553       1.260732

                          7       1    1px               0.416422       0.476823
                          7       1    1py               0.416422       0.476823
                          7       1    1pz               0.416422       0.476823

                          8       1    1px               0.142608       0.124917
                          8       1    1py               0.142608       0.124917
                          8       1    1pz               0.142608       0.124917

                          9       1    1dx2              1.654000       3.970513
                          9       1    1dxy              1.654000       6.877130
                          9       1    1dxz              1.654000       6.877130
                          9       1    1dy2              1.654000       3.970513
                          9       1    1dyz              1.654000       6.877130
                          9       1    1dz2              1.654000       3.970513

                         10       1    1dx2              0.469000       0.437484
                         10       1    1dxy              0.469000       0.757744
                         10       1    1dxz              0.469000       0.757744
                         10       1    1dy2              0.469000       0.437484
                         10       1    1dyz              0.469000       0.757744
                         10       1    1dz2              0.469000       0.437484

                         11       1    1fx3              1.093000       1.798249
                         11       1    1fx2y             1.093000       4.021007
                         11       1    1fx2z             1.093000       4.021007
                         11       1    1fxy2             1.093000       4.021007
                         11       1    1fxyz             1.093000       6.964588
                         11       1    1fxz2             1.093000       4.021007
                         11       1    1fy3              1.093000       1.798249
                         11       1    1fy2z             1.093000       4.021007
                         11       1    1fyz2             1.093000       4.021007
                         11       1    1fz3              1.093000       1.798249

     AE Potential information for                                            ALL

       Description:                                       All-electron potential
                                          Krack, Parrinello, PCCP 2, 2105 (2000)

       Gaussian exponent of the core charge distribution:               5.979100
       Electronic configuration (s p d ...):                           4   3   0

  2. Atomic kind: c                                     Number of atoms:       4

     Orbital Basis Set                                        Ahlrichs-def2-TZVP

       Number of orbital shell sets:                                          11
       Number of orbital shells:                                              11
       Number of primitive Cartesian functions:                               20
       Number of Cartesian basis functions:                                   36
       Number of spherical basis functions:                                   31
       Norm type:                                                              2

       Normalised Cartesian orbitals:

                        Set   Shell   Orbital            Exponent    Coefficient

                          1       1    1s            13575.349682       0.543591
                                                      2035.233368       1.014554
                                                       463.225624       1.731573
                                                       131.200196       2.691038
                                                        42.853016       3.604455
                                                        15.584186       3.702556

                          2       1    1s                6.206714       1.838354
                                                         2.576490       0.544758

                          3       1    1s                0.576963       0.471815

                          4       1    1s                0.229728       0.236494

                          5       1    1s                0.095164       0.122114

                          6       1    1px              34.697232       1.359665
                                                         7.958262       1.451259
                                                         2.378083       1.270923
                                                         0.814332       0.802572
                          6       1    1py              34.697232       1.359665
                                                         7.958262       1.451259
                                                         2.378083       1.270923
                                                         0.814332       0.802572
                          6       1    1pz              34.697232       1.359665
                                                         7.958262       1.451259
                                                         2.378083       1.270923
                                                         0.814332       0.802572

                          7       1    1px               0.288875       0.301876
                          7       1    1py               0.288875       0.301876
                          7       1    1pz               0.288875       0.301876

                          8       1    1px               0.100568       0.080727
                          8       1    1py               0.100568       0.080727
                          8       1    1pz               0.100568       0.080727

                          9       1    1dx2              1.097000       1.935401
                          9       1    1dxy              1.097000       3.352214
                          9       1    1dxz              1.097000       3.352214
                          9       1    1dy2              1.097000       1.935401
                          9       1    1dyz              1.097000       3.352214
                          9       1    1dz2              1.097000       1.935401

                         10       1    1dx2              0.318000       0.221644
                         10       1    1dxy              0.318000       0.383899
                         10       1    1dxz              0.318000       0.383899
                         10       1    1dy2              0.318000       0.221644
                         10       1    1dyz              0.318000       0.383899
                         10       1    1dz2              0.318000       0.221644

                         11       1    1fx3              0.761000       0.796288
                         11       1    1fx2y             0.761000       1.780553
                         11       1    1fx2z             0.761000       1.780553
                         11       1    1fxy2             0.761000       1.780553
                         11       1    1fxyz             0.761000       3.084008
                         11       1    1fxz2             0.761000       1.780553
                         11       1    1fy3              0.761000       0.796288
                         11       1    1fy2z             0.761000       1.780553
                         11       1    1fyz2             0.761000       1.780553
                         11       1    1fz3              0.761000       0.796288

       Atomic covalent radius [Angstrom]:                                  0.770

       Atomic van der Waals radius [Angstrom]:                             1.700

     The atoms of this atomic kind are PAW atoms (GAPW):
       Hard Gaussian function radius:                                      1.520
       Rho0 radius:                                                        1.520
       Maximum GTO radius used for PAW projector construction:            24.566

     GAPW Soft Basis Set                                 Ahlrichs-def2-TZVP_soft

       Number of orbital shell sets:                                          11
       Number of orbital shells:                                              11
       Number of primitive Cartesian functions:                               11
       Number of Cartesian basis functions:                                   36
       Number of spherical basis functions:                                   31
       Norm type:                                                              2

       Normalised Cartesian orbitals:

                        Set   Shell   Orbital            Exponent    Coefficient

                          1       1    1s         

                          2       1    1s                2.576490       0.544758

                          3       1    1s                0.576963       0.471815

                          4       1    1s                0.229728       0.236494

                          5       1    1s                0.095164       0.122114

                          6       1    1px               2.378083       1.270923
                                                         0.814332       0.802572
                          6       1    1py               2.378083       1.270923
                                                         0.814332       0.802572
                          6       1    1pz               2.378083       1.270923
                                                         0.814332       0.802572

                          7       1    1px               0.288875       0.301876
                          7       1    1py               0.288875       0.301876
                          7       1    1pz               0.288875       0.301876

                          8       1    1px               0.100568       0.080727
                          8       1    1py               0.100568       0.080727
                          8       1    1pz               0.100568       0.080727

                          9       1    1dx2              1.097000       1.935401
                          9       1    1dxy              1.097000       3.352214
                          9       1    1dxz              1.097000       3.352214
                          9       1    1dy2              1.097000       1.935401
                          9       1    1dyz              1.097000       3.352214
                          9       1    1dz2              1.097000       1.935401

                         10       1    1dx2              0.318000       0.221644
                         10       1    1dxy              0.318000       0.383899
                         10       1    1dxz              0.318000       0.383899
                         10       1    1dy2              0.318000       0.221644
                         10       1    1dyz              0.318000       0.383899
                         10       1    1dz2              0.318000       0.221644

                         11       1    1fx3              0.761000       0.796288
                         11       1    1fx2y             0.761000       1.780553
                         11       1    1fx2z             0.761000       1.780553
                         11       1    1fxy2             0.761000       1.780553
                         11       1    1fxyz             0.761000       3.084008
                         11       1    1fxz2             0.761000       1.780553
                         11       1    1fy3              0.761000       0.796288
                         11       1    1fy2z             0.761000       1.780553
                         11       1    1fyz2             0.761000       1.780553
                         11       1    1fz3              0.761000       0.796288

     AE Potential information for                                            ALL

       Description:                                       All-electron potential
                                          Krack, Parrinello, PCCP 2, 2105 (2000)

       Gaussian exponent of the core charge distribution:               4.109048
       Electronic configuration (s p d ...):                           4   2   0

  3. Atomic kind: h                                     Number of atoms:       4

     Orbital Basis Set                                        Ahlrichs-def2-TZVP

       Number of orbital shell sets:                                           4
       Number of orbital shells:                                               4
       Number of primitive Cartesian functions:                                6
       Number of Cartesian basis functions:                                    6
       Number of spherical basis functions:                                    6
       Norm type:                                                              2

       Normalised Cartesian orbitals:

                        Set   Shell   Orbital            Exponent    Coefficient

                          1       1    1s               34.061341       0.255630
                                                         5.123575       0.461360
                                                         1.164663       0.681121

                          2       1    1s                0.327230       0.308355

                          3       1    1s                0.103072       0.129648

                          4       1    1px               0.800000       1.078456
                          4       1    1py               0.800000       1.078456
                          4       1    1pz               0.800000       1.078456

       Atomic covalent radius [Angstrom]:                                  0.320

       Atomic van der Waals radius [Angstrom]:                             1.090

     The atoms of this atomic kind are PAW atoms (GAPW):
       Hard Gaussian function radius:                                      1.000
       Rho0 radius:                                                        1.000
       Maximum GTO radius used for PAW projector construction:            24.566

     GAPW Soft Basis Set                                 Ahlrichs-def2-TZVP_soft

       Number of orbital shell sets:                                           4
       Number of orbital shells:                                               4
       Number of primitive Cartesian functions:                                5
       Number of Cartesian basis functions:                                    6
       Number of spherical basis functions:                                    6
       Norm type:                                                              2

       Normalised Cartesian orbitals:

                        Set   Shell   Orbital            Exponent    Coefficient

                          1       1    1s                5.123575       0.461360
                                                         1.164663       0.681121

                          2       1    1s                0.327230       0.308355

                          3       1    1s                0.103072       0.129648

                          4       1    1px               0.800000       1.078456
                          4       1    1py               0.800000       1.078456
                          4       1    1pz               0.800000       1.078456

     AE Potential information for                                            ALL

       Description:                                       All-electron potential
                                          Krack, Parrinello, PCCP 2, 2105 (2000)

       Gaussian exponent of the core charge distribution:              12.500000
       Electronic configuration (s p d ...):                           1   0   0


 MOLECULE KIND INFORMATION


 All atoms are their own molecule, skipping detailed information


 TOTAL NUMBERS AND MAXIMUM NUMBERS

  Total number of            - Atomic kinds:                                   3
                             - Atoms:                                         10
                             - Shell sets:                                    82
                             - Shells:                                        82
                             - Primitive Cartesian functions:                144
                             - Cartesian basis functions:                    240
                             - Spherical basis functions:                    210

  Maximum angular momentum of the orbital basis functions:                     3


 MODULE QUICKSTEP: ATOMIC COORDINATES IN ANGSTROM

   Atom Kind Element         X             Y             Z       Z(eff)     Mass
      1    1 n     7      6.686388      8.232593      7.582364   7.0000  14.0067
      2    1 n     7      6.584293      5.842925      6.464755   7.0000  14.0067
      3    2 c     6      6.641421      7.059597      8.420035   6.0000  12.0107
      4    2 c     6      6.856261      5.822696      7.778437   6.0000  12.0107
      5    2 c     6      6.902126      8.257610      6.357963   6.0000  12.0107
      6    2 c     6      6.793217      6.858840      5.675949   6.0000  12.0107
      7    3 h     1      6.566622      7.470159      9.541887   1.0000   1.0079
      8    3 h     1      7.433378      4.935050      8.180102   1.0000   1.0079
      9    3 h     1      6.846359      9.064950      5.704050   1.0000   1.0079
     10    3 h     1      6.604070      6.693722      4.458113   1.0000   1.0079



 SCF PARAMETERS         Density guess:                                   RESTART
                        --------------------------------------------------------
                        max_scf:                                              50
                        max_scf_history:                                       0
                        max_diis:                                              4
                        --------------------------------------------------------
                        eps_scf:                                        1.00E-08
                        eps_scf_history:                                0.00E+00
                        eps_diis:                                       1.00E-01
                        eps_eigval:                                     1.00E-05
                        --------------------------------------------------------
                        level_shift [a.u.]:                             0.000000
                        --------------------------------------------------------
                        Outer loop SCF in use 
                        No variables optimised in outer loop
                        eps_scf                                         1.00E-08
                        max_scf                                              900
                        No outer loop optimization
                        step_size                                       5.00E-01

 PW_GRID| Information for grid number                                          1
 PW_GRID| Grid distributed over                                    16 processors
 PW_GRID| Real space group dimensions                                    16    1
 PW_GRID| the grid is blocked:                                                NO
 PW_GRID| Cutoff [a.u.]                                                    400.0
 PW_GRID| spherical cutoff:                                                   NO
 PW_GRID|   Bounds   1           -120     119                Points:         240
 PW_GRID|   Bounds   2           -120     119                Points:         240
 PW_GRID|   Bounds   3           -120     119                Points:         240
 PW_GRID| Volume element (a.u.^3)  0.1340E-02     Volume (a.u.^3)     18517.4301
 PW_GRID| Grid span                                                    FULLSPACE
 PW_GRID|   Distribution                         Average         Max         Min
 PW_GRID|   G-Vectors                           864000.0      864000      864000
 PW_GRID|   G-Rays                                3600.0        3600        3600
 PW_GRID|   Real Space Points                   864000.0      864000      864000

 PW_GRID| Information for grid number                                          2
 PW_GRID| Number of the reference grid                                         1
 PW_GRID| Grid distributed over                                    16 processors
 PW_GRID| Real space group dimensions                                    16    1
 PW_GRID| the grid is blocked:                                                NO
 PW_GRID| Cutoff [a.u.]                                                    200.0
 PW_GRID| spherical cutoff:                                                   NO
 PW_GRID|   Bounds   1            -90      89                Points:         180
 PW_GRID|   Bounds   2            -90      89                Points:         180
 PW_GRID|   Bounds   3            -90      89                Points:         180
 PW_GRID| Volume element (a.u.^3)  0.3175E-02     Volume (a.u.^3)     18517.4301
 PW_GRID| Grid span                                                    FULLSPACE
 PW_GRID|   Distribution                         Average         Max         Min
 PW_GRID|   G-Vectors                           364500.0      364680      364320
 PW_GRID|   G-Rays                                2025.0        2026        2024
 PW_GRID|   Real Space Points                   364500.0      388800      356400

 PW_GRID| Information for grid number                                          3
 PW_GRID| Number of the reference grid                                         2
 PW_GRID| Grid distributed over                                    16 processors
 PW_GRID| Real space group dimensions                                    16    1
 PW_GRID| the grid is blocked:                                                NO
 PW_GRID| Cutoff [a.u.]                                                     66.7
 PW_GRID| spherical cutoff:                                                   NO
 PW_GRID|   Bounds   1            -50      49                Points:         100
 PW_GRID|   Bounds   2            -50      49                Points:         100
 PW_GRID|   Bounds   3            -50      49                Points:         100
 PW_GRID| Volume element (a.u.^3)  0.1852E-01     Volume (a.u.^3)     18517.4301
 PW_GRID| Grid span                                                    FULLSPACE
 PW_GRID|   Distribution                         Average         Max         Min
 PW_GRID|   G-Vectors                            62500.0       62600       62400
 PW_GRID|   G-Rays                                 625.0         626         624
 PW_GRID|   Real Space Points                    62500.0       70000       60000

 PW_GRID| Information for grid number                                          4
 PW_GRID| Number of the reference grid                                         2
 PW_GRID| Grid distributed over                                    16 processors
 PW_GRID| Real space group dimensions                                    16    1
 PW_GRID| the grid is blocked:                                                NO
 PW_GRID| Cutoff [a.u.]                                                     22.2
 PW_GRID| spherical cutoff:                                                   NO
 PW_GRID|   Bounds   1            -30      29                Points:          60
 PW_GRID|   Bounds   2            -30      29                Points:          60
 PW_GRID|   Bounds   3            -30      29                Points:          60
 PW_GRID| Volume element (a.u.^3)  0.8573E-01     Volume (a.u.^3)     18517.4301
 PW_GRID| Grid span                                                    FULLSPACE
 PW_GRID|   Distribution                         Average         Max         Min
 PW_GRID|   G-Vectors                            13500.0       13560       13440
 PW_GRID|   G-Rays                                 225.0         226         224
 PW_GRID|   Real Space Points                    13500.0       14400       10800

 PW_GRID| Information for grid number                                          5
 PW_GRID| Number of the reference grid                                         2
 PW_GRID| Grid distributed over                                    16 processors
 PW_GRID| Real space group dimensions                                    16    1
 PW_GRID| the grid is blocked:                                                NO
 PW_GRID| Cutoff [a.u.]                                                      7.4
 PW_GRID| spherical cutoff:                                                   NO
 PW_GRID|   Bounds   1            -18      17                Points:          36
 PW_GRID|   Bounds   2            -18      17                Points:          36
 PW_GRID|   Bounds   3            -18      17                Points:          36
 PW_GRID| Volume element (a.u.^3)  0.3969         Volume (a.u.^3)     18517.4301
 PW_GRID| Grid span                                                    FULLSPACE
 PW_GRID|   Distribution                         Average         Max         Min
 PW_GRID|   G-Vectors                             2916.0        2952        2880
 PW_GRID|   G-Rays                                  81.0          82          80
 PW_GRID|   Real Space Points                     2916.0        3888        2592

 POISSON| Solver                                          Martyna-Tuckerman (MT)
 POISSON| MT| Alpha                                                        7.000
 POISSON| MT| Relative cutoff                                                2.0
 POISSON| Periodicity                                                       NONE

 RS_GRID| Information for grid number                                          2
 RS_GRID|   Bounds   1            -90      89                Points:         180
 RS_GRID|   Bounds   2            -90      89                Points:         180
 RS_GRID|   Bounds   3            -90      89                Points:         180
 RS_GRID| Real space distribution over                                  4 groups
 RS_GRID| Real space distribution along direction                              2
 RS_GRID| Border size                                                         31
 RS_GRID| Real space distribution over                                  4 groups
 RS_GRID| Real space distribution along direction                              3
 RS_GRID| Border size                                                         31
 RS_GRID|   Distribution                         Average         Max         Min
 RS_GRID|   Planes                                 107.0         107         107
 RS_GRID|   Distribution                         Average         Max         Min
 RS_GRID|   Planes                                 107.0         107         107

 RS_GRID| Information for grid number                                          3
 RS_GRID|   Bounds   1            -50      49                Points:         100
 RS_GRID|   Bounds   2            -50      49                Points:         100
 RS_GRID|   Bounds   3            -50      49                Points:         100
 RS_GRID| Real space fully replicated
 RS_GRID| Group size                                                           1

 RS_GRID| Information for grid number                                          4
 RS_GRID|   Bounds   1            -30      29                Points:          60
 RS_GRID|   Bounds   2            -30      29                Points:          60
 RS_GRID|   Bounds   3            -30      29                Points:          60
 RS_GRID| Real space fully replicated
 RS_GRID| Group size                                                           1

 RS_GRID| Information for grid number                                          5
 RS_GRID|   Bounds   1            -18      17                Points:          36
 RS_GRID|   Bounds   2            -18      17                Points:          36
 RS_GRID|   Bounds   3            -18      17                Points:          36
 RS_GRID| Real space fully replicated
 RS_GRID| Group size                                                           1

  HFX_INFO| Replica ID:                                                        1
  HFX_INFO| FRACTION:                                               0.2000000000
  HFX_INFO| Interaction Potential:                                       COULOMB
  HFX_INFO| EPS_SCHWARZ:                                                 1.0E-10
  HFX_INFO| EPS_SCHWARZ_FORCES                                           1.0E-08
  HFX_INFO| EPS_STORAGE_SCALING:                                         1.0E+00
  HFX_INFO| NBINS:                                                            64
  HFX_INFO| BLOCK_SIZE:                                                        1
  HFX_INFO| Number of periodic shells considered:                           NONE
  HFX_INFO| Number of periodic cells considered:                            NONE


 Number of electrons:                                                         42
 Number of occupied orbitals:                                                 21
 Number of molecular orbitals:                                                21

 Number of orbital functions:                                                210
 Number of independent orbital functions:                                    210

 Extrapolation method: initial_guess


 SCF WAVEFUNCTION OPTIMIZATION

  ----------------------------------- OT ---------------------------------------
  Minimizer      : DIIS                : direct inversion
                                         in the iterative subspace
                                         using   7 DIIS vectors
                                         safer DIIS on
  Preconditioner : FULL_ALL            : diagonalization, state selective
  Precond_solver : DEFAULT
  stepsize       :    0.15000000                  energy_gap     :    0.08000000
  eps_taylor     :   0.10000E-15                  max_taylor     :             4
  ----------------------------------- OT ---------------------------------------

  Step     Update method      Time    Convergence         Total energy    Change
  ------------------------------------------------------------------------------

  HFX_MEM_INFO| Est. max. program size before HFX [MiB]:                     642
  HFX_MEM_INFO| Number of cart. primitive ERI's calculated:           1707033745
  HFX_MEM_INFO| Number of sph. ERI's calculated:                       315291245
  HFX_MEM_INFO| Number of sph. ERI's stored in-core:                   315291245
  HFX_MEM_INFO| Number of sph. ERI's stored on disk:                           0
  HFX_MEM_INFO| Number of sph. ERI's calculated on the fly:                    0
  HFX_MEM_INFO| Total memory consumption ERI's RAM [MiB]:                    932
  HFX_MEM_INFO| Whereof max-vals [MiB]:                                        5
  HFX_MEM_INFO| Total compression factor ERI's RAM:                         2.58
  HFX_MEM_INFO| Total memory consumption ERI's disk [MiB]:                     0
  HFX_MEM_INFO| Total compression factor ERI's disk:                        0.00
  HFX_MEM_INFO| Size of density/Fock matrix [MiB]:                             0
  HFX_MEM_INFO| Size of buffers [MiB]:                                         0
  HFX_MEM_INFO| Est. max. program size after HFX  [MiB]:                     697

     1 OT DIIS     0.15E+00    5.8     0.01557623      -264.0329009754 -2.64E+02
     2 OT DIIS     0.15E+00    1.0     0.00711191      -264.1469776779 -1.14E-01
     3 OT DIIS     0.15E+00    1.0     0.00254952      -264.1751571072 -2.82E-02
     4 OT DIIS     0.15E+00    1.0     0.00052844      -264.1769240792 -1.77E-03
     5 OT DIIS     0.15E+00    1.0     0.00033307      -264.1770135610 -8.95E-05
     6 OT DIIS     0.15E+00    1.0     0.00010998      -264.1770431634 -2.96E-05
     7 OT DIIS     0.15E+00    1.0     0.00003267      -264.1770484194 -5.26E-06
     8 OT DIIS     0.15E+00    1.0     0.00001312      -264.1770488443 -4.25E-07
     9 OT DIIS     0.15E+00    1.0     0.00000610      -264.1770488878 -4.35E-08
    10 OT DIIS     0.15E+00    1.0     0.00000202      -264.1770488979 -1.01E-08
    11 OT DIIS     0.15E+00    1.0     0.00000081      -264.1770488991 -1.18E-09
    12 OT DIIS     0.15E+00    1.0     0.00000021      -264.1770488993 -2.16E-10
    13 OT DIIS     0.15E+00    1.0     0.00000010      -264.1770488993 -2.58E-11
    14 OT DIIS     0.15E+00    1.0     0.00000007      -264.1770488993  1.53E-12
    15 OT DIIS     0.15E+00    1.0     0.00000002      -264.1770488993 -1.19E-12
    16 OT DIIS     0.15E+00    1.0     9.4972E-09      -264.1770488993 -7.05E-12

  *** SCF run converged in    16 steps ***


  Electronic density on regular grids:        -30.6512637137       11.3487362863
  Core density on regular grids:               42.0000000000       -0.0000000000
  Hard and soft densities (Lebedev):          -93.6261753729      -82.2774391001
  Total Rho_soft + Rho1_hard - Rho1_soft      -41.9999999865
  Total charge density (r-space):               0.0000000135
  Total Rho_soft + Rho0_soft (g-space):        -0.0000000123

  Overlap energy of the core charge distribution:               0.00000952273380
  Self energy of the core charge distribution:               -217.69203579805162
  Core Hamiltonian energy:                                    -42.20386583028822
  Hartree energy:                                             110.04130117286542
  Exchange-correlation energy:                                -11.12201940758305
  Hartree-Fock Exchange energy:                                -7.03028226459599
  Dispersion energy:                                           -0.00394471297779

  GAPW| Exc from hard and soft atomic rho1:                   -18.54698623460512
  GAPW| local Eh = 1 center integrals:                        -77.61922534683771

  Total energy:                                              -264.17704889934026

  outer SCF iter =    1 RMS gradient =   0.95E-08 energy =       -264.1770488993
  outer SCF loop converged in   1 iterations or   16 steps


 !-----------------------------------------------------------------------------!
                     Mulliken Population Analysis

 #  Atom  Element  Kind  Atomic population                           Net charge
       1     n        1          7.156588                             -0.156588
       2     n        1          7.189409                             -0.189409
       3     c        2          6.059617                             -0.059617
       4     c        2          6.008894                             -0.008894
       5     c        2          6.074019                             -0.074019
       6     c        2          6.045215                             -0.045215
       7     h        3          0.854974                              0.145026
       8     h        3          0.863666                              0.136334
       9     h        3          0.870193                              0.129807
      10     h        3          0.877425                              0.122575
 # Total charge                             42.000000                  0.000000

 !-----------------------------------------------------------------------------!

 !-----------------------------------------------------------------------------!
                           Hirshfeld Charges

  #Atom  Element  Kind  Ref Charge     Population                    Net charge
      1       n      1       7.000          7.297                        -0.297
      2       n      1       7.000          7.282                        -0.282
      3       c      2       6.000          6.368                        -0.368
      4       c      2       6.000          6.326                        -0.326
      5       c      2       6.000          6.332                        -0.332
      6       c      2       6.000          6.354                        -0.354
      7       h      3       1.000          0.503                         0.497
      8       h      3       1.000          0.503                         0.497
      9       h      3       1.000          0.506                         0.494
     10       h      3       1.000          0.515                         0.485

  Total Charge                                                            0.013
 !-----------------------------------------------------------------------------!

 *******************************************************************************
 **                                                                           **
 **         ######## #######   #######   ######## #######  ########           **
 **            ##    ##     ## ##     ## ##       ##   ##     ##              **
 **            ##    ##     ## ##     ## ######   #######     ##              **
 **            ##    ##     ## ##     ## ##       ##          ##              **
 **            ##    #######   #######   ##       ##          ##              **
 **                                                                           **
 *******************************************************************************
 KERNEL|                                                                    FULL
 FUNCTIONAL| BECKE88:
 FUNCTIONAL| A. Becke, Phys. Rev. A 38, 3098 (1988) {LDA version}               
 FUNCTIONAL| LYP:
 FUNCTIONAL| C. Lee, W. Yang, R.G. Parr, Phys. Rev. B, 37, 785 (1988) {LDA versi
 FUNCTIONAL| on}                                                                
 FUNCTIONAL| VWN:
 FUNCTIONAL| S. H. Vosko, L. Wilk and M. Nusair, Can. J. Phys. 58, 1200 (1980) {
 FUNCTIONAL| LDA version}                                                       
 FUNCTIONAL| XALPHA:
 FUNCTIONAL| Dirac/Slater local exchange; parameter=  0.666 {LDA}               
 KERNEL|                                                          Exact Exchange
 KERNEL| Spin symmetry of excitations                                    Singlet
 TDDFPT| Number of states calculated                                           9
 TDDFPT| Number of Davidson iterations                                       100
 TDDFPT| Davidson iteration convergence                                0.367E-09
 TDDFPT| Max. number of Krylov space vectors                                5000
 TDDFPT| Molecular Orbitals:        Spin       AOs       Occ      Virt     Total
 TDDFPT|                               1       210        21       189       210
 
 -------------------------------------------------------------------------------
 -                            TDDFPT Initial Guess                             -
 -------------------------------------------------------------------------------
          State         Occupied      ->      Virtual          Excitation
          number         orbital              orbital          energy (eV)
 -------------------------------------------------------------------------------
             1               21                   22              4.69666
             2               21                   23              4.81277
             3               20                   22              5.82949
             4               20                   23              5.94560
             5               19                   22              6.49231
             6               19                   23              6.60841
             7               21                   24              7.53664
             8               21                   25              7.68023
             9               18                   22              7.75080

      Number of active states:                                       3969
 -------------------------------------------------------------------------------
 
 -------------------------------------------------------------------------------
 -                      TDDFPT WAVEFUNCTION OPTIMIZATION                       -
 -------------------------------------------------------------------------------

          Step            Time         Convergence           Conv. states
 -------------------------------------------------------------------------------

    State    Exc. energy (eV)      Convergence (eV)
        1       3.5434820            -1.1532E+00
        2       3.7343756            -1.0784E+00
        3       5.1679020            -6.6159E-01
        4       5.2271414            -7.1846E-01
        5       6.3274677            -1.6484E-01
        6       6.8842232             2.7581E-01
        7       7.0344122            -5.0223E-01
        8       7.3447201            -3.3551E-01
        9       9.4746888             1.7239E+00

             1            10.7          6.3352E-02                      0

    State    Exc. energy (eV)      Convergence (eV)
        1       3.4578066            -8.5675E-02
        2       3.6117912            -1.2258E-01
        3       5.0648166            -1.0309E-01
        4       5.1229380            -1.0420E-01
        5       5.6164963            -7.1097E-01
        6       5.8970865            -9.8714E-01
        7       6.5502860            -4.8413E-01
        8       6.7926673            -5.5205E-01
        9       8.0783823            -1.3963E+00

             2            10.7          5.1313E-02                      0

    State    Exc. energy (eV)      Convergence (eV)
        1       3.4514540            -6.3526E-03
        2       3.6053730            -6.4182E-03
        3       5.0583333            -6.4834E-03
        4       5.1192296            -3.7084E-03
        5       5.5748143            -4.1682E-02
        6       5.8613445            -3.5742E-02
        7       6.5252298            -2.5056E-02
        8       6.7828919            -9.7754E-03
        9       7.1336380            -9.4474E-01

             3            10.7          3.4719E-02                      0

    State    Exc. energy (eV)      Convergence (eV)
        1       3.4513027            -1.5134E-04
        2       3.6052151            -1.5785E-04
        3       5.0581750            -1.5830E-04
        4       5.1190917            -1.3785E-04
        5       5.5728775            -1.9368E-03
        6       5.8599095            -1.4350E-03
        7       6.5232967            -1.9330E-03
        8       6.7820297            -8.6222E-04
        9       7.0929135            -4.0724E-02

             4            10.7          1.4966E-03                      0

    State    Exc. energy (eV)      Convergence (eV)
        1       3.4513010            -1.7092E-06
        2       3.6052133            -1.8573E-06
        3       5.0581709            -4.0587E-06
        4       5.1190858            -5.9080E-06
        5       5.5728245            -5.2962E-05
        6       5.8598702            -3.9322E-05
        7       6.5232198            -7.6944E-05
        8       6.7819786            -5.1079E-05
        9       7.0890323            -3.8812E-03

             5            10.7          1.4263E-04                      0

    State    Exc. energy (eV)      Convergence (eV)
        1       3.4513010            -2.2104E-08
        2       3.6052133            -2.5201E-08
        3       5.0581708            -8.0308E-08
        4       5.1190857            -1.2059E-07
        5       5.5728230            -1.4894E-06
        6       5.8598695            -7.2111E-07
        7       6.5232167            -3.0837E-06
        8       6.7819763            -2.2901E-06
        9       7.0885959            -4.3647E-04

             6            10.7          1.6040E-05                      0

    State    Exc. energy (eV)      Convergence (eV)
        1       3.4513010            -1.7473E-10
        2       3.6052133            -2.2673E-10
        3       5.0581708            -1.5242E-09
        4       5.1190857            -2.0347E-09
        5       5.5728230            -3.2071E-08
        6       5.8598695            -1.4690E-08
        7       6.5232166            -1.2644E-07
        8       6.7819762            -1.3176E-07
        9       7.0885648            -3.1046E-05

             7            10.7          1.1409E-06                      4

    State    Exc. energy (eV)      Convergence (eV)
        1       3.4513010            -1.0959E-12
        2       3.6052133            -1.8194E-12
        3       5.0581708            -1.5200E-11
        4       5.1190857            -2.1904E-11
        5       5.5728230            -3.8000E-10
        6       5.8598695            -2.4759E-10
        7       6.5232166            -4.2328E-09
        8       6.7819762            -5.1786E-09
        9       7.0885637            -1.1634E-06

             8            10.7          4.2754E-08                      8

    State    Exc. energy (eV)      Convergence (eV)
        1       3.4513010            -2.2658E-15
        2       3.6052133            -1.5105E-14
        3       5.0581708            -1.6238E-13
        4       5.1190857            -2.9455E-13
        5       5.5728230            -5.9024E-12
        6       5.8598695            -2.8421E-12
        7       6.5232166            -1.0170E-10
        8       6.7819762            -1.8927E-10
        9       7.0885636            -6.3663E-08

             9            10.6          2.3396E-09                      8

    State    Exc. energy (eV)      Convergence (eV)
        1       3.4513010            -1.6616E-14
        2       3.6052133             6.0421E-15
        3       5.0581708            -1.2084E-14
        4       5.1190857            -1.2840E-14
        5       5.5728230            -8.4590E-14
        6       5.8598695            -2.9455E-14
        7       6.5232166            -2.0521E-12
        8       6.7819762            -4.9742E-12
        9       7.0885636            -2.1984E-09

            10            10.6          8.0791E-11                      9
 ------------------------- Restart Davidson iterations -------------------------

    State    Exc. energy (eV)      Convergence (eV)
        1       3.4513010             1.6616E-14
        2       3.6052133             2.2658E-15
        3       5.0581708             4.5316E-15
        4       5.1190857             2.2658E-15
        5       5.5728230             3.0211E-15
        6       5.8598695             3.7763E-15
        7       6.5232166             6.7974E-15
        8       6.7819762             7.5527E-16
        9       7.0885636            -4.9848E-14

            11            10.6          1.8319E-15                      9
 
 -------------------------------------------------------------------------------
 -  TDDFPT run converged in 11 iteration(s) 
 -------------------------------------------------------------------------------

 R-TDDFPT states of multiplicity 1
 Transition dipoles calculated using length formulation

         State    Excitation        Transition dipole (a.u.)        Oscillator
         number   energy (eV)       x           y           z     strength (a.u.)
         ------------------------------------------------------------------------
 TDDFPT|      1       3.45130   1.6548E-01  1.1408E-01 -2.2478E-02   3.45837E-03
 TDDFPT|      2       3.60521  -9.9137E-02  6.6052E-02  2.4288E-01   6.46379E-03
 TDDFPT|      3       5.05817  -8.9949E-03 -2.9779E-01  3.9271E-01   3.01110E-02
 TDDFPT|      4       5.11909  -6.6598E-03  1.5364E-02  3.1571E-01   1.25354E-02
 TDDFPT|      5       5.57282  -1.2913E-02  5.8839E-01 -3.2841E-01   6.20163E-02
 TDDFPT|      6       5.85987  -7.4883E-03  7.8356E-01  4.7136E-01   1.20050E-01
 TDDFPT|      7       6.52322  -2.3858E-02 -1.6645E-01 -5.0320E-01   4.49854E-02
 TDDFPT|      8       6.78198  -1.2724E-02 -1.0961E-01 -5.2899E-01   4.85185E-02
 TDDFPT|      9       7.08856  -5.1194E-02 -1.3088E-01  3.3562E-01   2.29926E-02

 TDDFPT : CheckSum  =  0.615909E+00
 
 -------------------------------------------------------------------------------
 -                            Excitation analysis                              -
 -------------------------------------------------------------------------------
        State             Occupied              Virtual             Excitation
        number             orbital              orbital             amplitude
 -------------------------------------------------------------------------------
             1   3.45130 eV
                                21                   22               0.939164
                                21                   23               0.288242
                                20                   22               0.163287
             2   3.60521 eV
                                21                   23              -0.932391
                                21                   22               0.271475
                                20                   23              -0.191847
                                20                   22               0.090757
             3   5.05817 eV
                                20                   22               0.530638
                                20                   23               0.495916
                                19                   23               0.490851
                                19                   22               0.386903
                                18                   22               0.185655
                                21                   24               0.122132
                                21                   25               0.085458
                                18                   23              -0.069109
                                21                   22              -0.058757
             4   5.11909 eV
                                19                   22              -0.896938
                                20                   23               0.372084
                                20                   22               0.140860
                                19                   23               0.124562
                                18                   22               0.105795
                                18                   23              -0.055261
             5   5.57282 eV
                                19                   23               0.765427
                                18                   23               0.434803
                                20                   22              -0.401050
                                20                   23              -0.159544
                                18                   22              -0.081675
                                21                   22               0.070260
                                19                   22              -0.066164
             6   5.85987 eV
                                20                   23               0.610777
                                20                   22              -0.589954
                                21                   24               0.297825
                                19                   23              -0.213196
                                19                   22               0.145413
                                21                   22               0.131695
                                21                   23              -0.129925
                                21                   27              -0.098581
                                21                   25               0.094933
                                18                   22               0.084525
                                18                   23               0.077747
                                16                   22              -0.070773
                                17                   23               0.057880
                                21                   36               0.051092
             7   6.52322 eV
                                21                   24               0.693857
                                21                   25               0.504574
                                18                   22              -0.376772
                                20                   23              -0.167731
                                20                   22               0.163826
                                18                   23               0.136346
                                19                   22              -0.108230
                                21                   28              -0.076812
                                21                   22              -0.058595
                                21                   26               0.058144
             8   6.78198 eV
                                21                   25              -0.813042
                                21                   24               0.554431
                                20                   24              -0.066547
                                20                   23              -0.054657
                                17                   23              -0.053339
             9   7.08856 eV
                                21                   26               0.981563
                                21                   24              -0.071684
                                18                   23               0.062686
                                21                   27              -0.057799
                                19                   26               0.057402
                                20                   24               0.051090
 -------------------------------------------------------------------------------
 
 -------------------------------------------------------------------------------
 -                            Natural Orbital analysis                         -
 -------------------------------------------------------------------------------
   STATE NR.      1             3.45130 eV
     Particle-Hole state: 1   Spin:1     Eigenvalue: 0.99226   Sum Eigv: 0.99226
   STATE NR.      2             3.60521 eV
     Particle-Hole state: 1   Spin:1     Eigenvalue: 0.99177   Sum Eigv: 0.99177
   STATE NR.      3             5.05817 eV
     Particle-Hole state: 1   Spin:1     Eigenvalue: 0.92809   Sum Eigv: 0.92809
     Particle-Hole state: 2   Spin:1     Eigenvalue: 0.03976   Sum Eigv: 0.96785
     Particle-Hole state: 3   Spin:1     Eigenvalue: 0.02834   Sum Eigv: 0.99619
   STATE NR.      4             5.11909 eV
     Particle-Hole state: 1   Spin:1     Eigenvalue: 0.84307   Sum Eigv: 0.84307
     Particle-Hole state: 2   Spin:1     Eigenvalue: 0.15374   Sum Eigv: 0.99681
   STATE NR.      5             5.57282 eV
     Particle-Hole state: 1   Spin:1     Eigenvalue: 0.80851   Sum Eigv: 0.80851
     Particle-Hole state: 2   Spin:1     Eigenvalue: 0.18028   Sum Eigv: 0.98878
   STATE NR.      6             5.85987 eV
     Particle-Hole state: 1   Spin:1     Eigenvalue: 0.83314   Sum Eigv: 0.83314
     Particle-Hole state: 2   Spin:1     Eigenvalue: 0.12427   Sum Eigv: 0.95742
     Particle-Hole state: 3   Spin:1     Eigenvalue: 0.02024   Sum Eigv: 0.97766
   STATE NR.      7             6.52322 eV
     Particle-Hole state: 1   Spin:1     Eigenvalue: 0.75647   Sum Eigv: 0.75647
     Particle-Hole state: 2   Spin:1     Eigenvalue: 0.21636   Sum Eigv: 0.97284
     Particle-Hole state: 3   Spin:1     Eigenvalue: 0.01949   Sum Eigv: 0.99232
   STATE NR.      8             6.78198 eV
     Particle-Hole state: 1   Spin:1     Eigenvalue: 0.97883   Sum Eigv: 0.97883
   STATE NR.      9             7.08856 eV
     Particle-Hole state: 1   Spin:1     Eigenvalue: 0.98320   Sum Eigv: 0.98320
 -------------------------------------------------------------------------------
 Ground state orbital alignment:         1.000000[MinVal]      1.000000[Average]
 Excitation vector alignment:                                           1.000000
 Calculate properties for state:   1      with excitation energy      3.45130 eV

  HFX_MEM_INFO| Number of cart. primitive DERIV's calculated:        10619017524
[...]
  max size                          31.744000E+03
  average size                       7.708925E+03
 MPI breakdown and total messages size (bytes):
             size <=      128               76866                        0
       128 < size <=     8192               11184                 76823712
      8192 < size <=    32768               50190                988858080
     32768 < size <=   131072                   0                        0
    131072 < size <=  4194304                   0                        0
   4194304 < size <= 16777216                   0                        0
  16777216 < size                               0                        0
 -------------------------------------------------------------------------------
 -                                                                             -
 -                      DBCSR MESSAGE PASSING PERFORMANCE                      -
 -                                                                             -
 -------------------------------------------------------------------------------
 ROUTINE             CALLS      AVE VOLUME [Bytes]
 MP_Bcast               28                     12.
 MP_Allreduce         6158                      8.
 MP_Alltoall         24338                   2778.
 MP_ISend            23036                   3621.
 MP_IRecv            23036                   3339.
 -------------------------------------------------------------------------------

 -------------------------------------------------------------------------------
 -                                                                             -
 -                                DBM STATISTICS                               -
 -                                                                             -
 -------------------------------------------------------------------------------
    M  x    N  x    K                                          COUNT     PERCENT
 -------------------------------------------------------------------------------

 -------------------------------------------------------------------------------
 -                                                                             -
 -                                GRID STATISTICS                              -
 -                                                                             -
 -------------------------------------------------------------------------------
 LP    KERNEL             BACKEND                              COUNT     PERCENT
 1     collocate ortho    CPU                                 231462      15.59%
 2     collocate ortho    CPU                                 188694      12.71%
 1     integrate ortho    CPU                                 187683      12.64%
 0     collocate ortho    CPU                                 160578      10.81%
 2     integrate ortho    CPU                                 157067      10.58%
 3     collocate ortho    CPU                                 126720       8.53%
 0     integrate ortho    CPU                                 125705       8.46%
 3     integrate ortho    CPU                                 106824       7.19%
 4     collocate ortho    CPU                                  54648       3.68%
 4     integrate ortho    CPU                                  47900       3.23%
 4     collocate general  CPU                                  19200       1.29%
 5     collocate ortho    CPU                                  16632       1.12%
 5     integrate ortho    CPU                                  15228       1.03%
 4     integrate general  CPU                                  14880       1.00%
 2     collocate general  CPU                                  12800       0.86%
 2     integrate general  CPU                                   9920       0.67%
 6     collocate ortho    CPU                                   4158       0.28%
 6     integrate ortho    CPU                                   3927       0.26%
 5     integrate general  CPU                                    384       0.03%
 3     integrate general  CPU                                    256       0.02%
 7     integrate ortho    CPU                                    168       0.01%
 0     collocate general  CPU                                    160       0.01%
 0     integrate general  CPU                                    160       0.01%
 -------------------------------------------------------------------------------

 MEMORY| Estimated peak process memory [MiB]                                1275

 -------------------------------------------------------------------------------
 ----                             MULTIGRID INFO                            ----
 -------------------------------------------------------------------------------
 count for grid        1:         109538          cutoff [a.u.]          200.00
 count for grid        2:          22507          cutoff [a.u.]           66.67
 count for grid        3:           8627          cutoff [a.u.]           22.22
 count for grid        4:           1858          cutoff [a.u.]            7.41
 total gridlevel count  :         142530

 -------------------------------------------------------------------------------
 -                                                                             -
 -                         MESSAGE PASSING PERFORMANCE                         -
 -                                                                             -
 -------------------------------------------------------------------------------

 ROUTINE             CALLS      AVE VOLUME [Bytes]
 MP_Group                5
 MP_Bcast             4688                1000749.
 MP_Allreduce        14071                 143137.
 MP_Sync              1362
 MP_Alltoall          3980               15047201.
 MP_SendRecv          8970                 233861.
 MP_ISendRecv        15240                 125107.
 MP_Wait             32018
 MP_comm_split          49
 MP_ISend            14447                 822480.
 MP_IRecv            14614                 812744.
 -------------------------------------------------------------------------------


 -------------------------------------------------------------------------------
 -                                                                             -
 -                           R E F E R E N C E S                               -
 -                                                                             -
 -------------------------------------------------------------------------------
 
 CP2K version 2024.1 (Development Version), the CP2K developers group (2024).
 CP2K is freely available from https://www.cp2k.org/ .

 Kuehne,Thomas D.; Iannuzzi,Marcella; Del Ben,Mauro;
 Rybkin,Vladimir V.; Seewald,Patrick; Stein,Frederick; Laino,Teodoro;
 Khaliullin,Rustam Z.; Schuett,Ole; Schiffmann,Florian; Golze,Dorothea;
 Wilhelm,Jan; Chulkov,Sergey; Bani-Hashemian,Mohammad Hossein;
 Weber,Valery; Borstnik,Urban; Taillefumier,Mathieu;
 Jakobovits,Alice Shoshana; Lazzaro,Alfio; Pabst,Hans; Mueller,Tiziano;
 Schade,Robert; Guidon,Manuel; Andermatt,Samuel; Holmberg,Nico;
 Schenter,Gregory K.; Hehn,Anna; Bussy,Augustin; Belleflamme,Fabian;
 Tabacchi,Gloria; Gloess,Andreas; Lass,Michael; Bethune,Iain;
 Mundy,Christopher J.; Plessl,Christian; Watkins,Matt;
 VandeVondele,Joost; Krack,Matthias; Hutter,Juerg. 
 The Journal of Chemical Physics, 152 (19), (2020). 
 CP2K: An electronic structure and molecular dynamics software package -
 Quickstep: Efficient and accurate electronic structure calculations.
 https://doi.org/10.1063/5.0007045

 Goerigk, Lars; Hansen, Andreas; Bauer, Christoph; Ehrlich, Stephan;
 Najibi, Asim; Grimme, Stefan. , 19 (48), (2017). 
 A look at the density functional theory zoo with the advanced GMTKN55 database
 for general main group thermochemistry, kinetics and noncovalent interactions.
 https://doi.org/10.1039/C7CP04913G

 Schuett, Ole; Messmer, Peter; Hutter, Juerg; VandeVondele, Joost. 
 Electronic Structure Calculations on Graphics Processing Units, John
 Wiley & Sons, Ltd, 173-190 (2016). 
 GPU-Accelerated Sparse Matrix-Matrix Multiplication for
 Linear Scaling Density Functional Theory.
 https://doi.org/10.1002/9781118670712.ch8

 Heinecke, A; Henry, G; Hutchinson, M; Pabst, H. 
 Proceedings of Intl. Supercomputing Conference, 981-991 (2016). 
 LIBXSMM: Accelerating Small Matrix Multiplications
 by Runtime Code Generation.
 https://doi.org/10.1109/SC.2016.83

 Borstnik, U; VandeVondele, J; Weber, V; Hutter, J. 
 PARALLEL COMPUTING, 40 (5-6), 47-58 (2014). 
 Sparse matrix multiplication: The distributed block-compressed sparse
 row library.
 https://doi.org/10.1016/j.parco.2014.03.012

 Hutter, J; Iannuzzi, M; Schiffmann, F; VandeVondele, J. 
 WIREs Comput Mol Sci., 4 (1), 15-25 (2014). 
 CP2K: atomistic simulations of condensed matter systems.
 https://doi.org/10.1002/wcms.1159

 Grimme, S; Ehrlich, S; Goerigk, L. 
 JOURNAL OF COMPUTATIONAL CHEMISTRY, 32, 1456 (2011). 
 Effect of the damping function in dispersion corrected density functional theory.
 https://doi.org/10.1002/jcc.21759

 Grimme, S; Antony, J; Ehrlich, S; Krieg, H. 
 JOURNAL OF CHEMICAL PHYSICS, 132 (15), 154104 (2010). 
 A consistent and accurate ab initio parametrization of density
 functional dispersion correction (DFT-D) for the 94 elements H-Pu.
 https://doi.org/10.1063/1.3382344

 Guidon, M; Hutter, J; VandeVondele, J. 
 JOURNAL OF CHEMICAL THEORY AND COMPUTATION, 5 (11), 3010-3021 (2009). 
 Robust Periodic Hartree-Fock Exchange for Large-Scale Simulations Using
 Gaussian Basis Sets.
 https://doi.org/10.1021/ct900494g

 Guidon, M; Schiffmann, F; Hutter, J; VandeVondele, J. 
 JOURNAL OF CHEMICAL PHYSICS, 128 (21), 214104 (2008). 
 Ab initio molecular dynamics using hybrid density functionals.
 https://doi.org/10.1063/1.2931945

 VandeVondele, J; Hutter, J. 
 JOURNAL OF CHEMICAL PHYSICS, 127 (11), 114105 (2007). 
 Gaussian basis sets for accurate calculations on molecular systems in
 gas and condensed phases.
 https://doi.org/10.1063/1.2770708

 Frigo, M; Johnson, SG. 
 PROCEEDINGS OF THE IEEE, 93 (2), 216-231 (2005). 
 The design and implementation of FFTW3.
 https://doi.org/10.1109/JPROC.2004.840301

 Iannuzzi, M; Chassaing, T; Wallman, T; Hutter, J. 
 CHIMIA, 59 (7-8), 499-503 (2005). 
 Ground and excited state density functional calculations with the
 Gaussian and augmented-plane-wave method.
 https://doi.org/10.2533/000942905777676164

 VandeVondele, J; Hutter, J. 
 JOURNAL OF CHEMICAL PHYSICS, 118 (10), 4365-4369 (2003). 
 An efficient orbital transformation method for electronic structure
 calculations.
 https://doi.org/10.1063/1.1543154

 Martin,Richard L.. 
 The Journal of Chemical Physics, 118 (11), 4775-4777 (2003). 
 Natural transition orbitals.
 https://doi.org/10.1063/1.1558471

 Lippert, G; Hutter, J; Parrinello, M. 
 THEORETICAL CHEMISTRY ACCOUNTS, 103 (2), 124-140 (1999). 
 The Gaussian and augmented-plane-wave density functional method for ab
 initio molecular dynamics simulations.
 https://doi.org/10.1007/s002140050523

 Krack, M; Parrinello, M. 
 PHYSICAL CHEMISTRY CHEMICAL PHYSICS, 2 (10), 2105-2112 (2000). 
 All-electron ab-initio molecular dynamics.
 https://doi.org/10.1039/b001167n

 Martyna, GJ; Tuckerman, ME. 
 JOURNAL OF CHEMICAL PHYSICS, 110 (6), 2810-2821 (1999). 
 A reciprocal space based method for treating long range interactions in
 ab initio and force-field-based calculations in clusters.
 https://doi.org/10.1063/1.477923

 BECKE, AD. PHYSICAL REVIEW A, 38 (6), 3098-3100 (1988). 
 DENSITY-FUNCTIONAL EXCHANGE-ENERGY APPROXIMATION WITH CORRECT
 ASYMPTOTIC-BEHAVIOR.
 https://doi.org/10.1103/PhysRevA.38.3098

 LEE, CT; YANG, WT; PARR, RG. 
 PHYSICAL REVIEW B, 37 (2), 785-789 (1988). 
 DEVELOPMENT OF THE COLLE-SALVETTI CORRELATION-ENERGY FORMULA INTO A
 FUNCTIONAL OF THE ELECTRON-DENSITY.
 https://doi.org/10.1103/PhysRevB.37.785

 VOSKO, SH; WILK, L; NUSAIR, M. 
 CANADIAN JOURNAL OF PHYSICS, 58 (8), 1200-1211 (1980). 
 ACCURATE SPIN-DEPENDENT ELECTRON LIQUID CORRELATION ENERGIES FOR LOCAL
 SPIN-DENSITY CALCULATIONS - A CRITICAL ANALYSIS.
 https://doi.org/10.1139/p80-159


 -------------------------------------------------------------------------------
 -                                                                             -
 -                                T I M I N G                                  -
 -                                                                             -
 -------------------------------------------------------------------------------
 SUBROUTINE                       CALLS  ASD         SELF TIME        TOTAL TIME
                                MAXIMUM       AVERAGE  MAXIMUM  AVERAGE  MAXIMUM
 CP2K                                 1  1.0    0.012    0.018  265.402  265.403
 qs_forces                            1  2.0    0.001    0.001  264.406  264.406
 qs_energies                          1  3.0    0.000    0.000  174.705  174.705
 qs_energies_properties               1  4.0    0.000    0.000  153.340  153.340
 tddfpt                               1  5.0    0.000    0.000  153.340  153.340
 tddfpt_energies                      1  6.0    0.000    0.000  117.989  117.990
 tddfpt_davidson_solver               2  7.0    0.002    0.003  117.247  117.247
 tddfpt_compute_Aop_evects           11  8.0    0.000    0.000  116.886  116.887
 excited_state_energy                 2  3.5    0.001    0.002   76.912   76.912
 fft_wrap_pw1pw2                   3599 12.2    0.040    0.049   69.819   73.904
 fhxc_kernel                         11  9.0    0.004    0.004   72.972   72.973
 fft_wrap_pw1pw2_200               2515 13.5    2.095    2.179   67.632   71.717
 integrate_four_center              257 10.6    0.054    0.056   60.922   60.930
 integrate_four_center_main         257 11.6    0.023    0.031   53.554   57.979
 integrate_four_center_bin        24415 12.6   53.531   57.960   53.531   57.960
 fft3d_ps                          3599 14.2   28.883   30.588   51.378   55.718
 response_equation                    1  4.0    0.000    0.000   55.603   55.603
 linres_solver                        1  5.0    0.001    0.003   55.569   55.569
 apply_op                            39  6.0    0.001    0.001   55.499   55.499
 derivatives_four_center              4  8.5    0.004    0.006   49.135   50.358
 derivatives_four_center_main         4  9.5    0.000    0.001   49.047   50.272
 derivatives_four_center_bin        417 10.5   46.423   48.036   46.423   48.036
 tddfpt_apply_hfx                    11  9.0    0.001    0.002   43.804   43.804
 tddft_hfx_matrix                   198 10.0    0.004    0.004   43.385   43.385
 xc_pw_derive                      1317 12.5    0.011    0.012   39.440   41.440
 tddfpt_forces_main                   1  6.0    0.000    0.000   35.270   35.270
 tddfpt_forces                        1  7.0    0.000    0.000   33.942   33.942
 tddfpt_force_direct                  1  8.0    0.000    0.000   33.330   33.330
 tddfpt_kernel_force                  1  9.0    0.000    0.000   33.320   33.320
 fhxc_force                           1 10.0    0.001    0.001   33.320   33.320
 prepare_gapw_den                   204  8.8    0.005    0.006   32.569   32.758
 apply_op_2_dft                      38  7.0    0.002    0.003   32.429   32.489
 rebuild_ks_matrix                   17  6.8    0.000    0.000   31.833   31.834
 qs_ks_build_kohn_sham_matrix        17  7.8    0.002    0.002   31.833   31.834
 xc_pw_divergence                   199 12.3    0.005    0.006   24.516   26.644
 tddfpt_apply_xc_analytic            99 10.0    1.142    1.263   23.113   23.241
 calculate_rho_elec                 198  9.6    0.326    0.347   21.761   21.767
 qs_rho_update_rho_low              193  8.7    0.002    0.002   21.693   21.695
 response_force                       1  4.0    0.005    0.006   21.308   21.308
 scf_env_do_scf                       1  4.0    0.000    0.000   21.160   21.160
 hfx_ks_matrix                       17  8.8    0.001    0.001   20.222   20.223
 qs_ks_update_qs_env                 18  6.0    0.000    0.000   19.103   19.103
 mp_alltoall_z22v                  3599 16.2   12.496   19.048   12.496   19.048
 calculate_rho0_atom                600  9.8   17.641   18.615   17.641   18.615
 xc_calc_2nd_deriv_analytical       727 11.1    1.521    1.701   18.418   18.609
 xc_rho_set_and_dset_create         101 12.2    1.820    2.116   15.317   18.277
 qs_fxc_analytic                     39  8.0    0.001    0.002   18.057   18.126
 density_rs2pw                      198 10.6    0.008    0.008   16.937   17.822
 yz_to_x                           1833 15.3    4.147    4.628   12.410   16.818
 qs_vxc_create                       60 11.8    0.001    0.001   16.738   16.747
 xc_vxc_pw_create                    60 12.8    0.171    0.184   16.737   16.746
 integrate_v_rspace                 163  9.4    0.003    0.004   15.424   16.099
 scf_env_do_scf_inner_loop           16  5.0    0.000    0.001   15.417   15.417
 tddfpt_apply_coulomb                99 10.0    0.002    0.002   12.245   13.771
 xc_calc_2nd_deriv                   40  8.9    0.459    0.500   11.519   13.105
 qs_ks_update_qs_env_forces           1  3.0    0.000    0.000   12.732   12.732
 x_to_yz                           1766 15.0    5.796    6.496   10.029   12.146
 qs_fgxc_gdiff                        1 11.0    0.000    0.000   11.932   11.934
 qs_fxc_fdiff                         7 12.0    0.001    0.001   11.903   11.904
 potential_pw2rs                    163 10.4    0.016    0.017   10.680   11.357
 put_rho0_on_grid                   200  9.8    0.365    0.408    9.322    9.549
 transfer_rs2pw                     993 11.4    0.011    0.012    8.273    9.132
 xc_prep_2nd_deriv                   41  8.9    0.000    0.000    7.156    8.530
 apply_hfx                           38  7.0    0.001    0.001    8.254    8.260
 hfx_matrix                          38  8.0    0.001    0.001    8.251    8.257
 pw_gather_p                       1833 14.3    7.853    8.189    7.853    8.189
 transfer_rs2pw_200                 399 12.2    3.174    3.327    6.513    7.414
 integrate_vhg0_rspace              159  9.9    1.715    1.828    7.391    7.402
 pw_poisson_solve                   160  9.9    0.003    0.003    5.656    7.272
 transfer_pw2rs                     812 11.3    0.007    0.008    7.125    7.173
 mp_sync                           1362 12.3    4.496    6.924    4.496    6.924
 mp_sum_d                          2146  9.1    4.331    6.825    4.331    6.825
 xc_functional_eval                3060 12.0    0.004    0.007    3.564    6.422
 pw_scatter_p                      1766 14.0    5.855    5.954    5.855    5.954
 mp_waitany                       14440 13.2    4.778    5.749    4.778    5.749
 init_scf_loop                        1  5.0    0.000    0.000    5.743    5.743
 transfer_pw2rs_200                 323 12.2    2.729    2.798    5.501    5.624
 grid_collocate_task_list           198 10.6    4.119    5.555    4.119    5.555
 mp_sum_dv                         5870 10.6    2.571    5.357    2.571    5.357
 -------------------------------------------------------------------------------

 The number of warnings for this run is : 0
 
 -------------------------------------------------------------------------------
  **** **** ******  **  PROGRAM ENDED AT                 2025-01-06 10:15:11.871
 ***** ** ***  *** **   PROGRAM RAN ON                               nesh-clk532
 **    ****   ******    PROGRAM RAN BY                                  suphc356
 ***** **    ** ** **   PROGRAM PROCESS ID                                372113
  **** **  *******  **  PROGRAM STOPPED IN /gxfs_work/cau/suphc356/NEWTONX_proje
                                           ct/Pyrazin_molecule/CP2K_GAPW_B3LYP_d
                                           ef2_TZVP/MOLDYN_BA_again/TRAJECTORIES
                                           /TRAJ66/TEMP
