 DBCSR| CPU Multiplication driver                                           XSMM (U)
 DBCSR| Multrec recursion limit                                              512 (U)
 DBCSR| Multiplication stack size                                           1000 (D)
 DBCSR| Maximum elements for images                                    UNLIMITED (U)
 DBCSR| Multiplicative factor virtual images                                   1 (U)
 DBCSR| Use multiplication densification                                       T (D)
 DBCSR| Multiplication size stacks                                             3 (U)
 DBCSR| Use memory pool for CPU allocation                                     F (U)
 DBCSR| Number of 3D layers                                               SINGLE (U)
 DBCSR| Use MPI memory allocation                                              F (U)
 DBCSR| Use RMA algorithm                                                      F (U)
 DBCSR| Use Communication thread                                               T (U)
 DBCSR| Communication thread load                                             87 (D)
 DBCSR| MPI: My process id                                                     0
 DBCSR| MPI: Number of processes                                              16
 DBCSR| OMP: Current number of threads                                         1
 DBCSR| OMP: Max number of threads                                             1
 DBCSR| Split modifier for TAS multiplication algorithm                  1.0E+00 (U)


  **** **** ******  **  PROGRAM STARTED AT               2025-01-05 09:41:51.109
 ***** ** ***  *** **   PROGRAM STARTED ON                           nesh-clk433
 **    ****   ******    PROGRAM STARTED BY                              suphc356
 ***** **    ** ** **   PROGRAM PROCESS ID                               3974448
  **** **  *******  **  PROGRAM STARTED IN /gxfs_work/cau/suphc356/NEWTONX_proje
                                           ct/Pyrazin_molecule/CP2K_GAPW_B3LYP_d
                                           ef2_TZVP/MOLDYN_BA_again/TRAJECTORIES
                                           /TRAJ20/TEMP

 CP2K| version string:                 CP2K version 2024.1 (Development Version)
 CP2K| source code revision number:                                  git:990486a
 CP2K| cp2kflags: omp libint fftw3 libxc libgrpp parallel mpi_f08 scalapack cosm
 CP2K|            a xsmm spglib mkl
 CP2K| is freely available from                            https://www.cp2k.org/
 CP2K| Program compiled at                          Mon Mar 11 08:48:45 CET 2024
 CP2K| Program compiled on                                           nesh-login2
 CP2K| Program compiled for                                                local
 CP2K| Data directory path                 /gxfs_work/cau/suphc356/cp2k_gcc/data
 CP2K| Input file name                                                  cp2k.inp

 GLOBAL| Force Environment number                                              1
 GLOBAL| Basis set file name                                     EMSL_BASIS_SETS
 GLOBAL| Potential file name                                      ALL_POTENTIALS
 GLOBAL| MM Potential file name                                     MM_POTENTIAL
 GLOBAL| Coordinate file name                                      __STD_INPUT__
 GLOBAL| Method name                                                        CP2K
 GLOBAL| Project name                                               testsuite_ad
 GLOBAL| Run type                                                   ENERGY_FORCE
 GLOBAL| FFT library                                                       FFTW3
 GLOBAL| Diagonalization library                                       ScaLAPACK
 GLOBAL| DGEMM library                                                      BLAS
 GLOBAL| Orthonormality check for eigenvectors                          DISABLED
 GLOBAL| Matrix multiplication library                                     COSMA
 GLOBAL| All-to-all communication in single precision                          F
 GLOBAL| FFTs using library dependent lengths                                  F
 GLOBAL| Grid backend                                                       AUTO
 GLOBAL| Global print level                                               MEDIUM
 GLOBAL| MPI I/O enabled                                                       T
 GLOBAL| Total number of message passing processes                            16
 GLOBAL| Number of threads for this process                                    1
 GLOBAL| This output is from process                                           0
 GLOBAL| Stack size for threads created by OpenMP (OMP_STACKSIZE)           256M
 GLOBAL| CPU model name                Intel(R) Xeon(R) Gold 6226R CPU @ 2.90GHz
 GLOBAL| CPUID                                                              1003
 GLOBAL| Compiled for CPUID                                                    0

 *** HINT in environment.F:920 :: The compiler target flags (generic) used ***
 *** to build this binary cannot exploit all extensions of this CPU model  ***
 *** (x86_avx512). Consider compiler target flags as part of FCFLAGS and   ***
 *** CFLAGS (ARCH file).                                                   ***


 MEMORY| system memory details [Kb]
 MEMORY|                        rank 0           min           max       average
 MEMORY| MemTotal            196683224     196683224     196683224     196683224
 MEMORY| MemFree             171637696     171637696     171637696     171637696
 MEMORY| Buffers                795176        795176        795176        795176
 MEMORY| Cached                 735420        735420        735420        735420
 MEMORY| Slab                  9147316       9147316       9147316       9147316
 MEMORY| SReclaimable           214596        214596        214596        214596
 MEMORY| MemLikelyFree       173382888     173382888     173382888     173382888


 *** Fundamental physical constants (SI units) ***

 *** Literature: B. J. Mohr and B. N. Taylor,
 ***             CODATA recommended values of the fundamental physical
 ***             constants: 2006, Web Version 5.1
 ***             http://physics.nist.gov/constants

 Speed of light in vacuum [m/s]                             2.99792458000000E+08
 Magnetic constant or permeability of vacuum [N/A**2]       1.25663706143592E-06
 Electric constant or permittivity of vacuum [F/m]          8.85418781762039E-12
 Planck constant (h) [J*s]                                  6.62606896000000E-34
 Planck constant (h-bar) [J*s]                              1.05457162825177E-34
 Elementary charge [C]                                      1.60217648700000E-19
 Electron mass [kg]                                         9.10938215000000E-31
 Electron g factor [ ]                                     -2.00231930436220E+00
 Proton mass [kg]                                           1.67262163700000E-27
 Fine-structure constant                                    7.29735253760000E-03
 Rydberg constant [1/m]                                     1.09737315685270E+07
 Avogadro constant [1/mol]                                  6.02214179000000E+23
 Boltzmann constant [J/K]                                   1.38065040000000E-23
 Atomic mass unit [kg]                                      1.66053878200000E-27
 Bohr radius [m]                                            5.29177208590000E-11

 *** Conversion factors ***

 [u] -> [a.u.]                                              1.82288848426455E+03
 [Angstrom] -> [Bohr] = [a.u.]                              1.88972613288564E+00
 [a.u.] = [Bohr] -> [Angstrom]                              5.29177208590000E-01
 [a.u.] -> [s]                                              2.41888432650478E-17
 [a.u.] -> [fs]                                             2.41888432650478E-02
 [a.u.] -> [J]                                              4.35974393937059E-18
 [a.u.] -> [N]                                              8.23872205491840E-08
 [a.u.] -> [K]                                              3.15774647902944E+05
 [a.u.] -> [kJ/mol]                                         2.62549961709828E+03
 [a.u.] -> [kcal/mol]                                       6.27509468713739E+02
 [a.u.] -> [Pa]                                             2.94210107994716E+13
 [a.u.] -> [bar]                                            2.94210107994716E+08
 [a.u.] -> [atm]                                            2.90362800883016E+08
 [a.u.] -> [eV]                                             2.72113838565563E+01
 [a.u.] -> [Hz]                                             6.57968392072181E+15
 [a.u.] -> [1/cm] (wave numbers)                            2.19474631370540E+05
 [a.u./Bohr**2] -> [1/cm]                                   5.14048714338585E+03
 

 CELL_TOP| Volume [angstrom^3]:                                      2744.000000
 CELL_TOP| Vector a [angstrom    14.000     0.000     0.000   |a| =    14.000000
 CELL_TOP| Vector b [angstrom     0.000    14.000     0.000   |b| =    14.000000
 CELL_TOP| Vector c [angstrom     0.000     0.000    14.000   |c| =    14.000000
 CELL_TOP| Angle (b,c), alpha [degree]:                                90.000000
 CELL_TOP| Angle (a,c), beta  [degree]:                                90.000000
 CELL_TOP| Angle (a,b), gamma [degree]:                                90.000000
 CELL_TOP| Numerically orthorhombic:                                         YES
 CELL_TOP| Periodicity                                                      NONE

 CELL| Volume [angstrom^3]:                                          2744.000000
 CELL| Vector a [angstrom]:      14.000     0.000     0.000   |a| =    14.000000
 CELL| Vector b [angstrom]:       0.000    14.000     0.000   |b| =    14.000000
 CELL| Vector c [angstrom]:       0.000     0.000    14.000   |c| =    14.000000
 CELL| Angle (b,c), alpha [degree]:                                    90.000000
 CELL| Angle (a,c), beta  [degree]:                                    90.000000
 CELL| Angle (a,b), gamma [degree]:                                    90.000000
 CELL| Numerically orthorhombic:                                             YES
 CELL| Periodicity                                                          NONE

 CELL_REF| Volume [angstrom^3]:                                      2744.000000
 CELL_REF| Vector a [angstrom    14.000     0.000     0.000   |a| =    14.000000
 CELL_REF| Vector b [angstrom     0.000    14.000     0.000   |b| =    14.000000
 CELL_REF| Vector c [angstrom     0.000     0.000    14.000   |c| =    14.000000
 CELL_REF| Angle (b,c), alpha [degree]:                                90.000000
 CELL_REF| Angle (a,c), beta  [degree]:                                90.000000
 CELL_REF| Angle (a,b), gamma [degree]:                                90.000000
 CELL_REF| Numerically orthorhombic:                                         YES
 CELL_REF| Periodicity                                                      NONE

 *******************************************************************************
 *******************************************************************************
 **                                                                           **
 **     #####                         ##              ##                      **
 **    ##   ##            ##          ##              ##                      **
 **   ##     ##                       ##            ######                    **
 **   ##     ##  ##   ##  ##   #####  ##  ##   ####   ##    #####    #####    **
 **   ##     ##  ##   ##  ##  ##      ## ##   ##      ##   ##   ##  ##   ##   **
 **   ##  ## ##  ##   ##  ##  ##      ####     ###    ##   ######   ######    **
 **    ##  ###   ##   ##  ##  ##      ## ##      ##   ##   ##       ##        **
 **     #######   #####   ##   #####  ##  ##  ####    ##    #####   ##        **
 **           ##                                                    ##        **
 **                                                                           **
 **                                                ... make the atoms dance   **
 **                                                                           **
 **            Copyright (C) by CP2K developers group (2000-2024)             **
 **                      J. Chem. Phys. 152, 194103 (2020)                    **
 **                                                                           **
 *******************************************************************************

 DFT| Spin restricted Kohn-Sham (RKS) calculation                            RKS
 DFT| Multiplicity                                                             1
 DFT| Number of spin states                                                    1
 DFT| Charge                                                                   0
 DFT| Self-interaction correction (SIC)                                       NO
 DFT| Cutoffs: density                                              1.000000E-10
 DFT|          gradient                                             1.000000E-10
 DFT|          tau                                                  1.000000E-10
 DFT|          cutoff_smoothing_range                               0.000000E+00
 DFT| XC density smoothing                                                  NONE
 DFT| XC derivatives                                                          PW

 FUNCTIONAL| BECKE88:
 FUNCTIONAL| A. Becke, Phys. Rev. A 38, 3098 (1988) {LDA version}               
 FUNCTIONAL| LYP:
 FUNCTIONAL| C. Lee, W. Yang, R.G. Parr, Phys. Rev. B, 37, 785 (1988) {LDA versi
 FUNCTIONAL| on}                                                                
 FUNCTIONAL| VWN:
 FUNCTIONAL| S. H. Vosko, L. Wilk and M. Nusair, Can. J. Phys. 58, 1200 (1980) {
 FUNCTIONAL| LDA version}                                                       
 FUNCTIONAL| XALPHA:
 FUNCTIONAL| Dirac/Slater local exchange; parameter=  0.666 {LDA}               

 vdW POTENTIAL|                                                   Pair Potential
 vdW POTENTIAL|          DFT-D3 (Version 3.1)
 vdW POTENTIAL|          Potential Form: S. Grimme et al, JCP 132: 154104 (2010)
 vdW POTENTIAL|          Zero Damping
 vdW POTENTIAL|          Cutoff Radius [Bohr]:                             37.79
 vdW POTENTIAL|          s6 Scaling Factor:                               1.0000
 vdW POTENTIAL|          sr6 Scaling Factor:                              1.2610
 vdW POTENTIAL|          s8 Scaling Factor:                               1.7030
 vdW POTENTIAL|          Cutoff for CN calculation:                   0.1000E-05

 QS| Method:                                                                GAPW
 QS| Density plane wave grid type                        NON-SPHERICAL FULLSPACE
 QS| Number of grid levels:                                                    4
 QS| Density cutoff [a.u.]:                                                200.0
 QS| Multi grid cutoff [a.u.]: 1) grid level                               200.0
 QS|                           2) grid level                                66.7
 QS|                           3) grid level                                22.2
 QS|                           4) grid level                                 7.4
 QS| Grid level progression factor:                                          3.0
 QS| Relative density cutoff [a.u.]:                                        30.0
 QS| Interaction thresholds: eps_pgf_orb:                                1.0E-07
 QS|                         eps_filter_matrix:                          0.0E+00
 QS|                         eps_core_charge:                            1.0E-16
 QS|                         eps_rho_gspace:                             1.0E-14
 QS|                         eps_rho_rspace:                             1.0E-14
 QS|                         eps_gvg_rspace:                             1.0E-07
 QS|                         eps_ppl:                                    1.0E-02
 QS|                         eps_ppnl:                                   1.0E-09
 QS| GAPW|      One center basis extended with primitives (small:s)
 QS| GAPW|                   eps_fit:                                    1.0E-04
 QS| GAPW|                   eps_iso:                                    1.0E-12
 QS| GAPW|                   eps_svd:                                    1.0E-08
 QS| GAPW|                   eps_cpc:                                    1.0E-14
 QS| GAPW|   atom-r-grid: quadrature:                                     GC_LOG
 QS| GAPW|      atom-s-grid:  max l :                                          6
 QS| GAPW|      max_l_rho0 :                                                   4


 ATOMIC KIND INFORMATION

  1. Atomic kind: n                                     Number of atoms:       2

     Orbital Basis Set                                        Ahlrichs-def2-TZVP

       Number of orbital shell sets:                                          11
       Number of orbital shells:                                              11
       Number of primitive Cartesian functions:                               20
       Number of Cartesian basis functions:                                   36
       Number of spherical basis functions:                                   31
       Norm type:                                                              2

       Normalised Cartesian orbitals:

                        Set   Shell   Orbital            Exponent    Coefficient

                          1       1    1s            19730.800647       0.695604
                                                      2957.895874       1.298610
                                                       673.221336       2.219088
                                                       190.682495       3.463661
                                                        62.295442       4.696756
                                                        22.654161       4.952251

                          2       1    1s                8.979148       2.388068
                                                         3.686300       0.733788

                          3       1    1s                0.846601       0.629027

                          4       1    1s                0.336471       0.314863

                          5       1    1s                0.136477       0.160031

                          6       1    1px              49.200381       2.126481
                                                        11.346791       2.327937
                                                         3.427397       2.048573
                                                         1.178553       1.260732
                          6       1    1py              49.200381       2.126481
                                                        11.346791       2.327937
                                                         3.427397       2.048573
                                                         1.178553       1.260732
                          6       1    1pz              49.200381       2.126481
                                                        11.346791       2.327937
                                                         3.427397       2.048573
                                                         1.178553       1.260732

                          7       1    1px               0.416422       0.476823
                          7       1    1py               0.416422       0.476823
                          7       1    1pz               0.416422       0.476823

                          8       1    1px               0.142608       0.124917
                          8       1    1py               0.142608       0.124917
                          8       1    1pz               0.142608       0.124917

                          9       1    1dx2              1.654000       3.970513
                          9       1    1dxy              1.654000       6.877130
                          9       1    1dxz              1.654000       6.877130
                          9       1    1dy2              1.654000       3.970513
                          9       1    1dyz              1.654000       6.877130
                          9       1    1dz2              1.654000       3.970513

                         10       1    1dx2              0.469000       0.437484
                         10       1    1dxy              0.469000       0.757744
                         10       1    1dxz              0.469000       0.757744
                         10       1    1dy2              0.469000       0.437484
                         10       1    1dyz              0.469000       0.757744
                         10       1    1dz2              0.469000       0.437484

                         11       1    1fx3              1.093000       1.798249
                         11       1    1fx2y             1.093000       4.021007
                         11       1    1fx2z             1.093000       4.021007
                         11       1    1fxy2             1.093000       4.021007
                         11       1    1fxyz             1.093000       6.964588
                         11       1    1fxz2             1.093000       4.021007
                         11       1    1fy3              1.093000       1.798249
                         11       1    1fy2z             1.093000       4.021007
                         11       1    1fyz2             1.093000       4.021007
                         11       1    1fz3              1.093000       1.798249

       Atomic covalent radius [Angstrom]:                                  0.750

       Atomic van der Waals radius [Angstrom]:                             1.550

     The atoms of this atomic kind are PAW atoms (GAPW):
       Hard Gaussian function radius:                                      1.400
       Rho0 radius:                                                        1.400
       Maximum GTO radius used for PAW projector construction:            24.566

     GAPW Soft Basis Set                                 Ahlrichs-def2-TZVP_soft

       Number of orbital shell sets:                                          11
       Number of orbital shells:                                              11
       Number of primitive Cartesian functions:                               11
       Number of Cartesian basis functions:                                   36
       Number of spherical basis functions:                                   31
       Norm type:                                                              2

       Normalised Cartesian orbitals:

                        Set   Shell   Orbital            Exponent    Coefficient

                          1       1    1s         

                          2       1    1s                3.686300       0.733788

                          3       1    1s                0.846601       0.629027

                          4       1    1s                0.336471       0.314863

                          5       1    1s                0.136477       0.160031

                          6       1    1px               3.427397       2.048573
                                                         1.178553       1.260732
                          6       1    1py               3.427397       2.048573
                                                         1.178553       1.260732
                          6       1    1pz               3.427397       2.048573
                                                         1.178553       1.260732

                          7       1    1px               0.416422       0.476823
                          7       1    1py               0.416422       0.476823
                          7       1    1pz               0.416422       0.476823

                          8       1    1px               0.142608       0.124917
                          8       1    1py               0.142608       0.124917
                          8       1    1pz               0.142608       0.124917

                          9       1    1dx2              1.654000       3.970513
                          9       1    1dxy              1.654000       6.877130
                          9       1    1dxz              1.654000       6.877130
                          9       1    1dy2              1.654000       3.970513
                          9       1    1dyz              1.654000       6.877130
                          9       1    1dz2              1.654000       3.970513

                         10       1    1dx2              0.469000       0.437484
                         10       1    1dxy              0.469000       0.757744
                         10       1    1dxz              0.469000       0.757744
                         10       1    1dy2              0.469000       0.437484
                         10       1    1dyz              0.469000       0.757744
                         10       1    1dz2              0.469000       0.437484

                         11       1    1fx3              1.093000       1.798249
                         11       1    1fx2y             1.093000       4.021007
                         11       1    1fx2z             1.093000       4.021007
                         11       1    1fxy2             1.093000       4.021007
                         11       1    1fxyz             1.093000       6.964588
                         11       1    1fxz2             1.093000       4.021007
                         11       1    1fy3              1.093000       1.798249
                         11       1    1fy2z             1.093000       4.021007
                         11       1    1fyz2             1.093000       4.021007
                         11       1    1fz3              1.093000       1.798249

     AE Potential information for                                            ALL

       Description:                                       All-electron potential
                                          Krack, Parrinello, PCCP 2, 2105 (2000)

       Gaussian exponent of the core charge distribution:               5.979100
       Electronic configuration (s p d ...):                           4   3   0

  2. Atomic kind: c                                     Number of atoms:       4

     Orbital Basis Set                                        Ahlrichs-def2-TZVP

       Number of orbital shell sets:                                          11
       Number of orbital shells:                                              11
       Number of primitive Cartesian functions:                               20
       Number of Cartesian basis functions:                                   36
       Number of spherical basis functions:                                   31
       Norm type:                                                              2

       Normalised Cartesian orbitals:

                        Set   Shell   Orbital            Exponent    Coefficient

                          1       1    1s            13575.349682       0.543591
                                                      2035.233368       1.014554
                                                       463.225624       1.731573
                                                       131.200196       2.691038
                                                        42.853016       3.604455
                                                        15.584186       3.702556

                          2       1    1s                6.206714       1.838354
                                                         2.576490       0.544758

                          3       1    1s                0.576963       0.471815

                          4       1    1s                0.229728       0.236494

                          5       1    1s                0.095164       0.122114

                          6       1    1px              34.697232       1.359665
                                                         7.958262       1.451259
                                                         2.378083       1.270923
                                                         0.814332       0.802572
                          6       1    1py              34.697232       1.359665
                                                         7.958262       1.451259
                                                         2.378083       1.270923
                                                         0.814332       0.802572
                          6       1    1pz              34.697232       1.359665
                                                         7.958262       1.451259
                                                         2.378083       1.270923
                                                         0.814332       0.802572

                          7       1    1px               0.288875       0.301876
                          7       1    1py               0.288875       0.301876
                          7       1    1pz               0.288875       0.301876

                          8       1    1px               0.100568       0.080727
                          8       1    1py               0.100568       0.080727
                          8       1    1pz               0.100568       0.080727

                          9       1    1dx2              1.097000       1.935401
                          9       1    1dxy              1.097000       3.352214
                          9       1    1dxz              1.097000       3.352214
                          9       1    1dy2              1.097000       1.935401
                          9       1    1dyz              1.097000       3.352214
                          9       1    1dz2              1.097000       1.935401

                         10       1    1dx2              0.318000       0.221644
                         10       1    1dxy              0.318000       0.383899
                         10       1    1dxz              0.318000       0.383899
                         10       1    1dy2              0.318000       0.221644
                         10       1    1dyz              0.318000       0.383899
                         10       1    1dz2              0.318000       0.221644

                         11       1    1fx3              0.761000       0.796288
                         11       1    1fx2y             0.761000       1.780553
                         11       1    1fx2z             0.761000       1.780553
                         11       1    1fxy2             0.761000       1.780553
                         11       1    1fxyz             0.761000       3.084008
                         11       1    1fxz2             0.761000       1.780553
                         11       1    1fy3              0.761000       0.796288
                         11       1    1fy2z             0.761000       1.780553
                         11       1    1fyz2             0.761000       1.780553
                         11       1    1fz3              0.761000       0.796288

       Atomic covalent radius [Angstrom]:                                  0.770

       Atomic van der Waals radius [Angstrom]:                             1.700

     The atoms of this atomic kind are PAW atoms (GAPW):
       Hard Gaussian function radius:                                      1.520
       Rho0 radius:                                                        1.520
       Maximum GTO radius used for PAW projector construction:            24.566

     GAPW Soft Basis Set                                 Ahlrichs-def2-TZVP_soft

       Number of orbital shell sets:                                          11
       Number of orbital shells:                                              11
       Number of primitive Cartesian functions:                               11
       Number of Cartesian basis functions:                                   36
       Number of spherical basis functions:                                   31
       Norm type:                                                              2

       Normalised Cartesian orbitals:

                        Set   Shell   Orbital            Exponent    Coefficient

                          1       1    1s         

                          2       1    1s                2.576490       0.544758

                          3       1    1s                0.576963       0.471815

                          4       1    1s                0.229728       0.236494

                          5       1    1s                0.095164       0.122114

                          6       1    1px               2.378083       1.270923
                                                         0.814332       0.802572
                          6       1    1py               2.378083       1.270923
                                                         0.814332       0.802572
                          6       1    1pz               2.378083       1.270923
                                                         0.814332       0.802572

                          7       1    1px               0.288875       0.301876
                          7       1    1py               0.288875       0.301876
                          7       1    1pz               0.288875       0.301876

                          8       1    1px               0.100568       0.080727
                          8       1    1py               0.100568       0.080727
                          8       1    1pz               0.100568       0.080727

                          9       1    1dx2              1.097000       1.935401
                          9       1    1dxy              1.097000       3.352214
                          9       1    1dxz              1.097000       3.352214
                          9       1    1dy2              1.097000       1.935401
                          9       1    1dyz              1.097000       3.352214
                          9       1    1dz2              1.097000       1.935401

                         10       1    1dx2              0.318000       0.221644
                         10       1    1dxy              0.318000       0.383899
                         10       1    1dxz              0.318000       0.383899
                         10       1    1dy2              0.318000       0.221644
                         10       1    1dyz              0.318000       0.383899
                         10       1    1dz2              0.318000       0.221644

                         11       1    1fx3              0.761000       0.796288
                         11       1    1fx2y             0.761000       1.780553
                         11       1    1fx2z             0.761000       1.780553
                         11       1    1fxy2             0.761000       1.780553
                         11       1    1fxyz             0.761000       3.084008
                         11       1    1fxz2             0.761000       1.780553
                         11       1    1fy3              0.761000       0.796288
                         11       1    1fy2z             0.761000       1.780553
                         11       1    1fyz2             0.761000       1.780553
                         11       1    1fz3              0.761000       0.796288

     AE Potential information for                                            ALL

       Description:                                       All-electron potential
                                          Krack, Parrinello, PCCP 2, 2105 (2000)

       Gaussian exponent of the core charge distribution:               4.109048
       Electronic configuration (s p d ...):                           4   2   0

  3. Atomic kind: h                                     Number of atoms:       4

     Orbital Basis Set                                        Ahlrichs-def2-TZVP

       Number of orbital shell sets:                                           4
       Number of orbital shells:                                               4
       Number of primitive Cartesian functions:                                6
       Number of Cartesian basis functions:                                    6
       Number of spherical basis functions:                                    6
       Norm type:                                                              2

       Normalised Cartesian orbitals:

                        Set   Shell   Orbital            Exponent    Coefficient

                          1       1    1s               34.061341       0.255630
                                                         5.123575       0.461360
                                                         1.164663       0.681121

                          2       1    1s                0.327230       0.308355

                          3       1    1s                0.103072       0.129648

                          4       1    1px               0.800000       1.078456
                          4       1    1py               0.800000       1.078456
                          4       1    1pz               0.800000       1.078456

       Atomic covalent radius [Angstrom]:                                  0.320

       Atomic van der Waals radius [Angstrom]:                             1.090

     The atoms of this atomic kind are PAW atoms (GAPW):
       Hard Gaussian function radius:                                      1.000
       Rho0 radius:                                                        1.000
       Maximum GTO radius used for PAW projector construction:            24.566

     GAPW Soft Basis Set                                 Ahlrichs-def2-TZVP_soft

       Number of orbital shell sets:                                           4
       Number of orbital shells:                                               4
       Number of primitive Cartesian functions:                                5
       Number of Cartesian basis functions:                                    6
       Number of spherical basis functions:                                    6
       Norm type:                                                              2

       Normalised Cartesian orbitals:

                        Set   Shell   Orbital            Exponent    Coefficient

                          1       1    1s                5.123575       0.461360
                                                         1.164663       0.681121

                          2       1    1s                0.327230       0.308355

                          3       1    1s                0.103072       0.129648

                          4       1    1px               0.800000       1.078456
                          4       1    1py               0.800000       1.078456
                          4       1    1pz               0.800000       1.078456

     AE Potential information for                                            ALL

       Description:                                       All-electron potential
                                          Krack, Parrinello, PCCP 2, 2105 (2000)

       Gaussian exponent of the core charge distribution:              12.500000
       Electronic configuration (s p d ...):                           1   0   0


 MOLECULE KIND INFORMATION


 All atoms are their own molecule, skipping detailed information


 TOTAL NUMBERS AND MAXIMUM NUMBERS

  Total number of            - Atomic kinds:                                   3
                             - Atoms:                                         10
                             - Shell sets:                                    82
                             - Shells:                                        82
                             - Primitive Cartesian functions:                144
                             - Cartesian basis functions:                    240
                             - Spherical basis functions:                    210

  Maximum angular momentum of the orbital basis functions:                     3


 MODULE QUICKSTEP: ATOMIC COORDINATES IN ANGSTROM

   Atom Kind Element         X             Y             Z       Z(eff)     Mass
      1    1 n     7      6.656187      8.206323      7.489436   7.0000  14.0067
      2    1 n     7      6.751077      6.051116      6.413215   7.0000  14.0067
      3    2 c     6      7.006586      7.087524      8.284596   6.0000  12.0107
      4    2 c     6      6.812964      5.880344      7.655560   6.0000  12.0107
      5    2 c     6      7.076710      8.204495      6.247279   6.0000  12.0107
      6    2 c     6      6.913622      6.920736      5.516114   6.0000  12.0107
      7    3 h     1      7.210522      7.197947      9.462499   1.0000   1.0079
      8    3 h     1      6.541349      4.927655      7.929258   1.0000   1.0079
      9    3 h     1      7.458651      9.072345      5.666809   1.0000   1.0079
     10    3 h     1      7.329816      6.932352      4.537501   1.0000   1.0079



 SCF PARAMETERS         Density guess:                                   RESTART
                        --------------------------------------------------------
                        max_scf:                                              50
                        max_scf_history:                                       0
                        max_diis:                                              4
                        --------------------------------------------------------
                        eps_scf:                                        1.00E-08
                        eps_scf_history:                                0.00E+00
                        eps_diis:                                       1.00E-01
                        eps_eigval:                                     1.00E-05
                        --------------------------------------------------------
                        level_shift [a.u.]:                             0.000000
                        --------------------------------------------------------
                        Outer loop SCF in use 
                        No variables optimised in outer loop
                        eps_scf                                         1.00E-08
                        max_scf                                              900
                        No outer loop optimization
                        step_size                                       5.00E-01

 PW_GRID| Information for grid number                                          1
 PW_GRID| Grid distributed over                                    16 processors
 PW_GRID| Real space group dimensions                                    16    1
 PW_GRID| the grid is blocked:                                                NO
 PW_GRID| Cutoff [a.u.]                                                    400.0
 PW_GRID| spherical cutoff:                                                   NO
 PW_GRID|   Bounds   1           -120     119                Points:         240
 PW_GRID|   Bounds   2           -120     119                Points:         240
 PW_GRID|   Bounds   3           -120     119                Points:         240
 PW_GRID| Volume element (a.u.^3)  0.1340E-02     Volume (a.u.^3)     18517.4301
 PW_GRID| Grid span                                                    FULLSPACE
 PW_GRID|   Distribution                         Average         Max         Min
 PW_GRID|   G-Vectors                           864000.0      864000      864000
 PW_GRID|   G-Rays                                3600.0        3600        3600
 PW_GRID|   Real Space Points                   864000.0      864000      864000

 PW_GRID| Information for grid number                                          2
 PW_GRID| Number of the reference grid                                         1
 PW_GRID| Grid distributed over                                    16 processors
 PW_GRID| Real space group dimensions                                    16    1
 PW_GRID| the grid is blocked:                                                NO
 PW_GRID| Cutoff [a.u.]                                                    200.0
 PW_GRID| spherical cutoff:                                                   NO
 PW_GRID|   Bounds   1            -90      89                Points:         180
 PW_GRID|   Bounds   2            -90      89                Points:         180
 PW_GRID|   Bounds   3            -90      89                Points:         180
 PW_GRID| Volume element (a.u.^3)  0.3175E-02     Volume (a.u.^3)     18517.4301
 PW_GRID| Grid span                                                    FULLSPACE
 PW_GRID|   Distribution                         Average         Max         Min
 PW_GRID|   G-Vectors                           364500.0      364680      364320
 PW_GRID|   G-Rays                                2025.0        2026        2024
 PW_GRID|   Real Space Points                   364500.0      388800      356400

 PW_GRID| Information for grid number                                          3
 PW_GRID| Number of the reference grid                                         2
 PW_GRID| Grid distributed over                                    16 processors
 PW_GRID| Real space group dimensions                                    16    1
 PW_GRID| the grid is blocked:                                                NO
 PW_GRID| Cutoff [a.u.]                                                     66.7
 PW_GRID| spherical cutoff:                                                   NO
 PW_GRID|   Bounds   1            -50      49                Points:         100
 PW_GRID|   Bounds   2            -50      49                Points:         100
 PW_GRID|   Bounds   3            -50      49                Points:         100
 PW_GRID| Volume element (a.u.^3)  0.1852E-01     Volume (a.u.^3)     18517.4301
 PW_GRID| Grid span                                                    FULLSPACE
 PW_GRID|   Distribution                         Average         Max         Min
 PW_GRID|   G-Vectors                            62500.0       62600       62400
 PW_GRID|   G-Rays                                 625.0         626         624
 PW_GRID|   Real Space Points                    62500.0       70000       60000

 PW_GRID| Information for grid number                                          4
 PW_GRID| Number of the reference grid                                         2
 PW_GRID| Grid distributed over                                    16 processors
 PW_GRID| Real space group dimensions                                    16    1
 PW_GRID| the grid is blocked:                                                NO
 PW_GRID| Cutoff [a.u.]                                                     22.2
 PW_GRID| spherical cutoff:                                                   NO
 PW_GRID|   Bounds   1            -30      29                Points:          60
 PW_GRID|   Bounds   2            -30      29                Points:          60
 PW_GRID|   Bounds   3            -30      29                Points:          60
 PW_GRID| Volume element (a.u.^3)  0.8573E-01     Volume (a.u.^3)     18517.4301
 PW_GRID| Grid span                                                    FULLSPACE
 PW_GRID|   Distribution                         Average         Max         Min
 PW_GRID|   G-Vectors                            13500.0       13560       13440
 PW_GRID|   G-Rays                                 225.0         226         224
 PW_GRID|   Real Space Points                    13500.0       14400       10800

 PW_GRID| Information for grid number                                          5
 PW_GRID| Number of the reference grid                                         2
 PW_GRID| Grid distributed over                                    16 processors
 PW_GRID| Real space group dimensions                                    16    1
 PW_GRID| the grid is blocked:                                                NO
 PW_GRID| Cutoff [a.u.]                                                      7.4
 PW_GRID| spherical cutoff:                                                   NO
 PW_GRID|   Bounds   1            -18      17                Points:          36
 PW_GRID|   Bounds   2            -18      17                Points:          36
 PW_GRID|   Bounds   3            -18      17                Points:          36
 PW_GRID| Volume element (a.u.^3)  0.3969         Volume (a.u.^3)     18517.4301
 PW_GRID| Grid span                                                    FULLSPACE
 PW_GRID|   Distribution                         Average         Max         Min
 PW_GRID|   G-Vectors                             2916.0        2952        2880
 PW_GRID|   G-Rays                                  81.0          82          80
 PW_GRID|   Real Space Points                     2916.0        3888        2592

 POISSON| Solver                                          Martyna-Tuckerman (MT)
 POISSON| MT| Alpha                                                        7.000
 POISSON| MT| Relative cutoff                                                2.0
 POISSON| Periodicity                                                       NONE

 RS_GRID| Information for grid number                                          2
 RS_GRID|   Bounds   1            -90      89                Points:         180
 RS_GRID|   Bounds   2            -90      89                Points:         180
 RS_GRID|   Bounds   3            -90      89                Points:         180
 RS_GRID| Real space distribution over                                  4 groups
 RS_GRID| Real space distribution along direction                              2
 RS_GRID| Border size                                                         31
 RS_GRID| Real space distribution over                                  4 groups
 RS_GRID| Real space distribution along direction                              3
 RS_GRID| Border size                                                         31
 RS_GRID|   Distribution                         Average         Max         Min
 RS_GRID|   Planes                                 107.0         107         107
 RS_GRID|   Distribution                         Average         Max         Min
 RS_GRID|   Planes                                 107.0         107         107

 RS_GRID| Information for grid number                                          3
 RS_GRID|   Bounds   1            -50      49                Points:         100
 RS_GRID|   Bounds   2            -50      49                Points:         100
 RS_GRID|   Bounds   3            -50      49                Points:         100
 RS_GRID| Real space fully replicated
 RS_GRID| Group size                                                           1

 RS_GRID| Information for grid number                                          4
 RS_GRID|   Bounds   1            -30      29                Points:          60
 RS_GRID|   Bounds   2            -30      29                Points:          60
 RS_GRID|   Bounds   3            -30      29                Points:          60
 RS_GRID| Real space fully replicated
 RS_GRID| Group size                                                           1

 RS_GRID| Information for grid number                                          5
 RS_GRID|   Bounds   1            -18      17                Points:          36
 RS_GRID|   Bounds   2            -18      17                Points:          36
 RS_GRID|   Bounds   3            -18      17                Points:          36
 RS_GRID| Real space fully replicated
 RS_GRID| Group size                                                           1

  HFX_INFO| Replica ID:                                                        1
  HFX_INFO| FRACTION:                                               0.2000000000
  HFX_INFO| Interaction Potential:                                       COULOMB
  HFX_INFO| EPS_SCHWARZ:                                                 1.0E-10
  HFX_INFO| EPS_SCHWARZ_FORCES                                           1.0E-08
  HFX_INFO| EPS_STORAGE_SCALING:                                         1.0E+00
  HFX_INFO| NBINS:                                                            64
  HFX_INFO| BLOCK_SIZE:                                                        1
  HFX_INFO| Number of periodic shells considered:                           NONE
  HFX_INFO| Number of periodic cells considered:                            NONE


 Number of electrons:                                                         42
 Number of occupied orbitals:                                                 21
 Number of molecular orbitals:                                                21

 Number of orbital functions:                                                210
 Number of independent orbital functions:                                    210

 Extrapolation method: initial_guess


 SCF WAVEFUNCTION OPTIMIZATION

  ----------------------------------- OT ---------------------------------------
  Minimizer      : DIIS                : direct inversion
                                         in the iterative subspace
                                         using   7 DIIS vectors
                                         safer DIIS on
  Preconditioner : FULL_ALL            : diagonalization, state selective
  Precond_solver : DEFAULT
  stepsize       :    0.15000000                  energy_gap     :    0.08000000
  eps_taylor     :   0.10000E-15                  max_taylor     :             4
  ----------------------------------- OT ---------------------------------------

  Step     Update method      Time    Convergence         Total energy    Change
  ------------------------------------------------------------------------------

  HFX_MEM_INFO| Est. max. program size before HFX [MiB]:                     639
  HFX_MEM_INFO| Number of cart. primitive ERI's calculated:           1736605131
  HFX_MEM_INFO| Number of sph. ERI's calculated:                       316704557
  HFX_MEM_INFO| Number of sph. ERI's stored in-core:                   316704557
  HFX_MEM_INFO| Number of sph. ERI's stored on disk:                           0
  HFX_MEM_INFO| Number of sph. ERI's calculated on the fly:                    0
  HFX_MEM_INFO| Total memory consumption ERI's RAM [MiB]:                    945
  HFX_MEM_INFO| Whereof max-vals [MiB]:                                        5
  HFX_MEM_INFO| Total compression factor ERI's RAM:                         2.56
  HFX_MEM_INFO| Total memory consumption ERI's disk [MiB]:                     0
  HFX_MEM_INFO| Total compression factor ERI's disk:                        0.00
  HFX_MEM_INFO| Size of density/Fock matrix [MiB]:                             0
  HFX_MEM_INFO| Size of buffers [MiB]:                                         0
  HFX_MEM_INFO| Est. max. program size after HFX  [MiB]:                     697

     1 OT DIIS     0.15E+00    5.8     0.01850830      -263.9337040652 -2.64E+02
     2 OT DIIS     0.15E+00    1.0     0.00827232      -264.0948124219 -1.61E-01
     3 OT DIIS     0.15E+00    1.0     0.00363820      -264.1315081159 -3.67E-02
     4 OT DIIS     0.15E+00    1.0     0.00068167      -264.1340060512 -2.50E-03
     5 OT DIIS     0.15E+00    1.0     0.00025507      -264.1341158247 -1.10E-04
     6 OT DIIS     0.15E+00    1.0     0.00009434      -264.1341352305 -1.94E-05
     7 OT DIIS     0.15E+00    1.0     0.00004031      -264.1341385280 -3.30E-06
     8 OT DIIS     0.15E+00    1.0     0.00001287      -264.1341390182 -4.90E-07
     9 OT DIIS     0.15E+00    1.0     0.00000550      -264.1341390739 -5.57E-08
    10 OT DIIS     0.15E+00    1.0     0.00000173      -264.1341390821 -8.21E-09
    11 OT DIIS     0.15E+00    1.0     0.00000063      -264.1341390834 -1.24E-09
    12 OT DIIS     0.15E+00    1.0     0.00000023      -264.1341390836 -1.92E-10
    13 OT DIIS     0.15E+00    1.0     0.00000010      -264.1341390836 -1.69E-11
    14 OT DIIS     0.15E+00    1.0     0.00000005      -264.1341390836  1.08E-12
    15 OT DIIS     0.15E+00    1.0     0.00000002      -264.1341390836 -1.65E-12
    16 OT DIIS     0.15E+00    1.0     8.8028E-09      -264.1341390836 -8.75E-12

  *** SCF run converged in    16 steps ***


  Electronic density on regular grids:        -30.6408212560       11.3591787440
  Core density on regular grids:               42.0000000000       -0.0000000000
  Hard and soft densities (Lebedev):          -98.3379135456      -86.9787347915
  Total Rho_soft + Rho1_hard - Rho1_soft      -42.0000000101
  Total charge density (r-space):              -0.0000000101
  Total Rho_soft + Rho0_soft (g-space):        -0.0000000357

  Overlap energy of the core charge distribution:               0.00001490142616
  Self energy of the core charge distribution:               -217.69203579805162
  Core Hamiltonian energy:                                    -41.58699961968877
  Hartree energy:                                             109.51615123090698
  Exchange-correlation energy:                                -11.25528075668007
  Hartree-Fock Exchange energy:                                -7.06802005587252
  Dispersion energy:                                           -0.00363302487207

  GAPW| Exc from hard and soft atomic rho1:                   -18.55909666128514
  GAPW| local Eh = 1 center integrals:                        -77.48523929948458

  Total energy:                                              -264.13413908360161

  outer SCF iter =    1 RMS gradient =   0.88E-08 energy =       -264.1341390836
  outer SCF loop converged in   1 iterations or   16 steps


 !-----------------------------------------------------------------------------!
                     Mulliken Population Analysis

 #  Atom  Element  Kind  Atomic population                           Net charge
       1     n        1          7.222015                             -0.222015
       2     n        1          7.098548                             -0.098548
       3     c        2          6.014522                             -0.014522
       4     c        2          6.053192                             -0.053192
       5     c        2          6.029398                             -0.029398
       6     c        2          6.060117                             -0.060117
       7     h        3          0.879595                              0.120405
       8     h        3          0.869013                              0.130987
       9     h        3          0.894362                              0.105638
      10     h        3          0.879237                              0.120763
 # Total charge                             42.000000                  0.000000

 !-----------------------------------------------------------------------------!

 !-----------------------------------------------------------------------------!
                           Hirshfeld Charges

  #Atom  Element  Kind  Ref Charge     Population                    Net charge
      1       n      1       7.000          7.302                        -0.302
      2       n      1       7.000          7.288                        -0.288
      3       c      2       6.000          6.322                        -0.322
      4       c      2       6.000          6.337                        -0.337
      5       c      2       6.000          6.348                        -0.348
      6       c      2       6.000          6.353                        -0.353
      7       h      3       1.000          0.511                         0.489
      8       h      3       1.000          0.510                         0.490
      9       h      3       1.000          0.514                         0.486
     10       h      3       1.000          0.503                         0.497

  Total Charge                                                            0.012
 !-----------------------------------------------------------------------------!

 *******************************************************************************
 **                                                                           **
 **         ######## #######   #######   ######## #######  ########           **
 **            ##    ##     ## ##     ## ##       ##   ##     ##              **
 **            ##    ##     ## ##     ## ######   #######     ##              **
 **            ##    ##     ## ##     ## ##       ##          ##              **
 **            ##    #######   #######   ##       ##          ##              **
 **                                                                           **
 *******************************************************************************
 KERNEL|                                                                    FULL
 FUNCTIONAL| BECKE88:
 FUNCTIONAL| A. Becke, Phys. Rev. A 38, 3098 (1988) {LDA version}               
 FUNCTIONAL| LYP:
 FUNCTIONAL| C. Lee, W. Yang, R.G. Parr, Phys. Rev. B, 37, 785 (1988) {LDA versi
 FUNCTIONAL| on}                                                                
 FUNCTIONAL| VWN:
 FUNCTIONAL| S. H. Vosko, L. Wilk and M. Nusair, Can. J. Phys. 58, 1200 (1980) {
 FUNCTIONAL| LDA version}                                                       
 FUNCTIONAL| XALPHA:
 FUNCTIONAL| Dirac/Slater local exchange; parameter=  0.666 {LDA}               
 KERNEL|                                                          Exact Exchange
 KERNEL| Spin symmetry of excitations                                    Singlet
 TDDFPT| Number of states calculated                                           9
 TDDFPT| Number of Davidson iterations                                       100
 TDDFPT| Davidson iteration convergence                                0.367E-09
 TDDFPT| Max. number of Krylov space vectors                                5000
 TDDFPT| Molecular Orbitals:        Spin       AOs       Occ      Virt     Total
 TDDFPT|                               1       210        21       189       210
 
 -------------------------------------------------------------------------------
 -                            TDDFPT Initial Guess                             -
 -------------------------------------------------------------------------------
          State         Occupied      ->      Virtual          Excitation
          number         orbital              orbital          energy (eV)
 -------------------------------------------------------------------------------
             1               21                   22              3.59379
             2               21                   23              4.36882
             3               20                   22              5.25494
             4               19                   22              5.56913
             5               20                   23              6.02997
             6               19                   23              6.34416
             7               21                   24              7.03569
             8               21                   25              7.28264
             9               18                   22              7.37585

      Number of active states:                                       3969
 -------------------------------------------------------------------------------
 
 -------------------------------------------------------------------------------
 -                      TDDFPT WAVEFUNCTION OPTIMIZATION                       -
 -------------------------------------------------------------------------------

          Step            Time         Convergence           Conv. states
 -------------------------------------------------------------------------------

    State    Exc. energy (eV)      Convergence (eV)
        1       2.3890975            -1.2047E+00
        2       3.1305763            -1.2382E+00
        3       4.0118979            -1.2430E+00
        4       4.6886810            -8.8044E-01
        5       5.8417946            -1.8818E-01
        6       6.4247484             8.0592E-02
        7       6.6680027            -3.6769E-01
        8       7.5563215             2.7368E-01
        9       9.1114188             1.7356E+00

             1            10.6          6.3781E-02                      0

    State    Exc. energy (eV)      Convergence (eV)
        1       2.3077481            -8.1349E-02
        2       3.0539558            -7.6620E-02
        3       3.9052033            -1.0669E-01
        4       4.6291242            -5.9557E-02
        5       5.1548031            -6.8699E-01
        6       5.8601968            -5.6455E-01
        7       6.3995535            -2.6845E-01
        8       6.5867618            -9.6956E-01
        9       7.2208740            -1.8905E+00

             2            10.5          6.9476E-02                      0

    State    Exc. energy (eV)      Convergence (eV)
        1       2.3032957            -4.4525E-03
        2       3.0484888            -5.4670E-03
        3       3.9005016            -4.7017E-03
        4       4.6273289            -1.7953E-03
        5       5.1219562            -3.2847E-02
        6       5.8345388            -2.5658E-02
        7       6.2842442            -1.1531E-01
        8       6.5166184            -7.0143E-02
        9       6.5644609            -6.5641E-01

             3            10.5          2.4123E-02                      0

    State    Exc. energy (eV)      Convergence (eV)
        1       2.3031960            -9.9682E-05
        2       3.0483670            -1.2181E-04
        3       3.9003908            -1.1087E-04
        4       4.6272568            -7.2065E-05
        5       5.1209435            -1.0127E-03
        6       5.8332223            -1.3165E-03
        7       6.2742010            -1.0043E-02
        8       6.5085936            -8.0248E-03
        9       6.5612020            -3.2589E-03

             4            10.5          3.6908E-04                      0

    State    Exc. energy (eV)      Convergence (eV)
        1       2.3031951            -9.3835E-07
        2       3.0483655            -1.4440E-06
        3       3.9003889            -1.9007E-06
        4       4.6272533            -3.5212E-06
        5       5.1209125            -3.1001E-05
        6       5.8331828            -3.9559E-05
        7       6.2736425            -5.5851E-04
        8       6.5077862            -8.0734E-04
        9       6.5610448            -1.5722E-04

             5            10.5          2.9669E-05                      0

    State    Exc. energy (eV)      Convergence (eV)
        1       2.3031951            -1.0815E-08
        2       3.0483655            -1.3726E-08
        3       3.9003888            -2.4726E-08
        4       4.6272532            -7.6230E-08
        5       5.1209116            -8.7931E-07
        6       5.8331816            -1.1150E-06
        7       6.2736033            -3.9202E-05
        8       6.5076520            -1.3421E-04
        9       6.5610320            -1.2780E-05

             6            10.5          4.9320E-06                      0

    State    Exc. energy (eV)      Convergence (eV)
        1       2.3031951            -6.9826E-11
        2       3.0483655            -1.1471E-10
        3       3.9003888            -2.1762E-10
        4       4.6272532            -1.0656E-09
        5       5.1209116            -1.4347E-08
        6       5.8331816            -2.3083E-08
        7       6.2736022            -1.1093E-06
        8       6.5076458            -6.1999E-06
        9       6.5610314            -6.0253E-07

             7            10.5          2.2784E-07                      4

    State    Exc. energy (eV)      Convergence (eV)
        1       2.3031951            -4.5165E-13
        2       3.0483655            -9.3087E-13
        3       3.9003888            -2.4712E-12
        4       4.6272532            -1.3514E-11
        5       5.1209116            -2.5019E-10
        6       5.8331816            -4.3132E-10
        7       6.2736022            -4.0884E-08
        8       6.5076457            -1.4843E-07
        9       6.5610314            -1.5469E-08

             8            10.5          5.4547E-09                      6

    State    Exc. energy (eV)      Convergence (eV)
        1       2.3031951            -7.5527E-16
        2       3.0483655            -1.1329E-14
        3       3.9003888            -1.2840E-14
        4       4.6272532            -1.1782E-13
        5       5.1209116            -2.4954E-12
        6       5.8331816            -5.9092E-12
        7       6.2736022            -7.6589E-10
        8       6.5076457            -2.7944E-09
        9       6.5610314            -4.0087E-10

             9            10.5          1.0269E-10                      9
 ------------------------- Restart Davidson iterations -------------------------

    State    Exc. energy (eV)      Convergence (eV)
        1       2.3031951             6.7974E-15
        2       3.0483655             7.9303E-15
        3       3.9003888             7.5527E-16
        4       4.6272532            -7.5527E-16
        5       5.1209116             3.0211E-15
        6       5.8331816             1.5105E-15
        7       6.2736022            -5.2869E-15
        8       6.5076457             5.6645E-14
        9       6.5610314            -3.3987E-14

            10            10.5          2.0817E-15                      9
 
 -------------------------------------------------------------------------------
 -  TDDFPT run converged in 10 iteration(s) 
 -------------------------------------------------------------------------------

 R-TDDFPT states of multiplicity 1
 Transition dipoles calculated using length formulation

         State    Excitation        Transition dipole (a.u.)        Oscillator
         number   energy (eV)       x           y           z     strength (a.u.)
         ------------------------------------------------------------------------
 TDDFPT|      1       2.30320  -1.4615E-01 -5.8853E-02 -1.7962E-01   3.22115E-03
 TDDFPT|      2       3.04837  -1.7314E-02  1.9667E-01  2.0797E-03   2.91151E-03
 TDDFPT|      3       3.90039   1.9750E-02  9.6404E-02 -2.3912E-02   9.80004E-04
 TDDFPT|      4       4.62725  -3.0916E-02 -1.7725E-01  1.3887E-01   5.85624E-03
 TDDFPT|      5       5.12091   8.0825E-03 -2.8743E-01  7.6707E-01   8.41934E-02
 TDDFPT|      6       5.83318  -1.2084E-01 -6.7835E-02  4.4065E-01   3.04939E-02
 TDDFPT|      7       6.27360  -9.9747E-02 -6.2464E-01 -4.2205E-01   8.88772E-02
 TDDFPT|      8       6.50765   2.3078E-01  4.7768E-01 -1.0621E-01   4.66695E-02
 TDDFPT|      9       6.56103  -7.0312E-02  1.1541E-01 -9.7319E-01   1.55176E-01

 TDDFPT : CheckSum  =  0.564824E+00
 
 -------------------------------------------------------------------------------
 -                            Excitation analysis                              -
 -------------------------------------------------------------------------------
        State             Occupied              Virtual             Excitation
        number             orbital              orbital             amplitude
 -------------------------------------------------------------------------------
             1   2.30320 eV
                                21                   22              -0.992118
                                19                   22               0.073355
             2   3.04837 eV
                                21                   23              -0.987798
                                19                   23               0.117880
             3   3.90039 eV
                                20                   22               0.941940
                                19                   22               0.289006
                                18                   22              -0.118188
                                21                   24              -0.069918
             4   4.62725 eV
                                20                   23              -0.870270
                                19                   22               0.430562
                                18                   22               0.130486
                                20                   22              -0.122423
                                19                   23              -0.118616
                                21                   24               0.061764
             5   5.12091 eV
                                19                   22               0.732956
                                20                   23               0.379986
                                19                   23               0.358881
                                18                   23              -0.313462
                                20                   22              -0.216361
                                21                   24               0.086070
                                17                   22              -0.077081
                                21                   26              -0.070252
                                18                   22               0.052402
             6   5.83318 eV
                                21                   24              -0.923867
                                21                   26              -0.318057
                                18                   23              -0.101275
                                20                   22              -0.089566
                                19                   23              -0.083354
                                21                   29              -0.065015
             7   6.27360 eV
                                19                   23               0.778582
                                21                   25              -0.381860
                                18                   22               0.245671
                                19                   22              -0.220775
                                20                   23              -0.189545
                                21                   24              -0.135244
                                21                   26               0.100430
                                21                   23               0.098682
                                20                   22               0.077707
                                21                   29               0.066704
                                17                   22               0.057169
                                18                   23               0.054356
                                17                   23              -0.052354
                                20                   24               0.051337
             8   6.50765 eV
                                21                   25              -0.831749
                                21                   26              -0.407248
                                19                   23              -0.223598
                                18                   22              -0.202732
                                21                   24               0.114808
                                21                   27              -0.077483
                                16                   22              -0.058728
                                20                   23               0.054879
                                21                   28               0.054704
             9   6.56103 eV
                                21                   26              -0.834738
                                21                   25               0.349190
                                21                   24               0.270483
                                19                   23               0.200848
                                18                   23               0.126796
                                18                   22               0.122819
                                19                   22              -0.109850
                                20                   23              -0.063042
                                19                   24               0.056276
                                20                   24               0.054230
 -------------------------------------------------------------------------------
 
 -------------------------------------------------------------------------------
 -                            Natural Orbital analysis                         -
 -------------------------------------------------------------------------------
   STATE NR.      1             2.30320 eV
     Particle-Hole state: 1   Spin:1     Eigenvalue: 0.99441   Sum Eigv: 0.99441
   STATE NR.      2             3.04837 eV
     Particle-Hole state: 1   Spin:1     Eigenvalue: 0.99541   Sum Eigv: 0.99541
   STATE NR.      3             3.90039 eV
     Particle-Hole state: 1   Spin:1     Eigenvalue: 0.98721   Sum Eigv: 0.98721
   STATE NR.      4             4.62725 eV
     Particle-Hole state: 1   Spin:1     Eigenvalue: 0.77950   Sum Eigv: 0.77950
     Particle-Hole state: 2   Spin:1     Eigenvalue: 0.21393   Sum Eigv: 0.99343
   STATE NR.      5             5.12091 eV
     Particle-Hole state: 1   Spin:1     Eigenvalue: 0.69115   Sum Eigv: 0.69115
     Particle-Hole state: 2   Spin:1     Eigenvalue: 0.28511   Sum Eigv: 0.97626
   STATE NR.      6             5.83318 eV
     Particle-Hole state: 1   Spin:1     Eigenvalue: 0.96632   Sum Eigv: 0.96632
     Particle-Hole state: 2   Spin:1     Eigenvalue: 0.02405   Sum Eigv: 0.99037
   STATE NR.      7             6.27360 eV
     Particle-Hole state: 1   Spin:1     Eigenvalue: 0.72152   Sum Eigv: 0.72152
     Particle-Hole state: 2   Spin:1     Eigenvalue: 0.18476   Sum Eigv: 0.90628
     Particle-Hole state: 3   Spin:1     Eigenvalue: 0.06989   Sum Eigv: 0.97617
   STATE NR.      8             6.50765 eV
     Particle-Hole state: 1   Spin:1     Eigenvalue: 0.88324   Sum Eigv: 0.88324
     Particle-Hole state: 2   Spin:1     Eigenvalue: 0.07557   Sum Eigv: 0.95881
     Particle-Hole state: 3   Spin:1     Eigenvalue: 0.03225   Sum Eigv: 0.99106
   STATE NR.      9             6.56103 eV
     Particle-Hole state: 1   Spin:1     Eigenvalue: 0.89580   Sum Eigv: 0.89580
     Particle-Hole state: 2   Spin:1     Eigenvalue: 0.06496   Sum Eigv: 0.96076
     Particle-Hole state: 3   Spin:1     Eigenvalue: 0.02925   Sum Eigv: 0.99001
 -------------------------------------------------------------------------------
 Ground state orbital alignment:         1.000000[MinVal]      1.000000[Average]
 Excitation vector alignment:                                           1.000000
 Calculate properties for state:   1      with excitation energy      2.30320 eV

  HFX_MEM_INFO| Number of cart. primitive DERIV's calculated:        11221881000
  HFX_MEM_INFO| Number of sph. DERIV's calculated:                    2861447172
  HFX_MEM_INFO| Number of sph. DERIV's stored in-core:                         0
  HFX_MEM_INFO| Number of sph. DERIV's calculated on the fly:         2861447172
  HFX_MEM_INFO| Total memory consumption DERIV's RAM [MiB]:                    0
  HFX_MEM_INFO| Whereof max-vals [MiB]:                                        1
  HFX_MEM_INFO| Total compression factor DERIV's RAM:                       0.00

 !--------------------------- Excited State Energy ----------------------------!
 Results for Excited State Nr.                                                 1
[...]
 # MPI messages exchanged                  135168
 MPI messages size (bytes):
  total size                         1.030331E+09
  min size                           0.000000E+00
  max size                          31.744000E+03
  average size                       7.622598E+03
 MPI breakdown and total messages size (bytes):
             size <=      128               75642                        0
       128 < size <=     8192               10980                 75350016
      8192 < size <=    32768               48546                954981216
     32768 < size <=   131072                   0                        0
    131072 < size <=  4194304                   0                        0
   4194304 < size <= 16777216                   0                        0
  16777216 < size                               0                        0
 -------------------------------------------------------------------------------
 -                                                                             -
 -                      DBCSR MESSAGE PASSING PERFORMANCE                      -
 -                                                                             -
 -------------------------------------------------------------------------------
 ROUTINE             CALLS      AVE VOLUME [Bytes]
 MP_Bcast               28                     12.
 MP_Allreduce         6056                      8.
 MP_Alltoall         23487                   2765.
 MP_ISend            22524                   3586.
 MP_IRecv            22524                   3298.
 -------------------------------------------------------------------------------

 -------------------------------------------------------------------------------
 -                                                                             -
 -                                DBM STATISTICS                               -
 -                                                                             -
 -------------------------------------------------------------------------------
    M  x    N  x    K                                          COUNT     PERCENT
 -------------------------------------------------------------------------------

 -------------------------------------------------------------------------------
 -                                                                             -
 -                                GRID STATISTICS                              -
 -                                                                             -
 -------------------------------------------------------------------------------
 LP    KERNEL             BACKEND                              COUNT     PERCENT
 1     collocate ortho    CPU                                 240670      15.89%
 2     collocate ortho    CPU                                 195980      12.94%
 1     integrate ortho    CPU                                 187308      12.37%
 0     collocate ortho    CPU                                 166870      11.02%
 2     integrate ortho    CPU                                 156616      10.34%
 3     collocate ortho    CPU                                 131610       8.69%
 0     integrate ortho    CPU                                 125356       8.28%
 3     integrate ortho    CPU                                 106516       7.03%
 4     collocate ortho    CPU                                  56580       3.74%
 4     integrate ortho    CPU                                  47640       3.15%
 4     collocate general  CPU                                  19872       1.31%
 5     collocate ortho    CPU                                  17220       1.14%
 5     integrate ortho    CPU                                  15144       1.00%
 4     integrate general  CPU                                  14784       0.98%
 2     collocate general  CPU                                  13248       0.87%
 2     integrate general  CPU                                   9856       0.65%
 6     collocate ortho    CPU                                   4305       0.28%
 6     integrate ortho    CPU                                   3906       0.26%
 5     integrate general  CPU                                    384       0.03%
 3     integrate general  CPU                                    256       0.02%
 7     integrate ortho    CPU                                    168       0.01%
 0     collocate general  CPU                                    160       0.01%
 0     integrate general  CPU                                    160       0.01%
 -------------------------------------------------------------------------------

 MEMORY| Estimated peak process memory [MiB]                                1279

 -------------------------------------------------------------------------------
 ----                             MULTIGRID INFO                            ----
 -------------------------------------------------------------------------------
 count for grid        1:         109550          cutoff [a.u.]          200.00
 count for grid        2:          22508          cutoff [a.u.]           66.67
 count for grid        3:           8627          cutoff [a.u.]           22.22
 count for grid        4:           1858          cutoff [a.u.]            7.41
 total gridlevel count  :         142543

 -------------------------------------------------------------------------------
 -                                                                             -
 -                         MESSAGE PASSING PERFORMANCE                         -
 -                                                                             -
 -------------------------------------------------------------------------------

 ROUTINE             CALLS      AVE VOLUME [Bytes]
 MP_Group                5
 MP_Bcast             4794                 978474.
 MP_Allreduce        13809                 145375.
 MP_Sync              1311
 MP_Alltoall          4056               15068440.
 MP_SendRecv          9285                 233914.
 MP_ISendRecv        14895                 126829.
 MP_Wait             31949
 MP_comm_split          48
 MP_ISend            14687                 822519.
 MP_IRecv            14854                 812870.
 -------------------------------------------------------------------------------


 -------------------------------------------------------------------------------
 -                                                                             -
 -                           R E F E R E N C E S                               -
 -                                                                             -
 -------------------------------------------------------------------------------
 
 CP2K version 2024.1 (Development Version), the CP2K developers group (2024).
 CP2K is freely available from https://www.cp2k.org/ .

 Kuehne,Thomas D.; Iannuzzi,Marcella; Del Ben,Mauro;
 Rybkin,Vladimir V.; Seewald,Patrick; Stein,Frederick; Laino,Teodoro;
 Khaliullin,Rustam Z.; Schuett,Ole; Schiffmann,Florian; Golze,Dorothea;
 Wilhelm,Jan; Chulkov,Sergey; Bani-Hashemian,Mohammad Hossein;
 Weber,Valery; Borstnik,Urban; Taillefumier,Mathieu;
 Jakobovits,Alice Shoshana; Lazzaro,Alfio; Pabst,Hans; Mueller,Tiziano;
 Schade,Robert; Guidon,Manuel; Andermatt,Samuel; Holmberg,Nico;
 Schenter,Gregory K.; Hehn,Anna; Bussy,Augustin; Belleflamme,Fabian;
 Tabacchi,Gloria; Gloess,Andreas; Lass,Michael; Bethune,Iain;
 Mundy,Christopher J.; Plessl,Christian; Watkins,Matt;
 VandeVondele,Joost; Krack,Matthias; Hutter,Juerg. 
 The Journal of Chemical Physics, 152 (19), (2020). 
 CP2K: An electronic structure and molecular dynamics software package -
 Quickstep: Efficient and accurate electronic structure calculations.
 https://doi.org/10.1063/5.0007045

 Goerigk, Lars; Hansen, Andreas; Bauer, Christoph; Ehrlich, Stephan;
 Najibi, Asim; Grimme, Stefan. , 19 (48), (2017). 
 A look at the density functional theory zoo with the advanced GMTKN55 database
 for general main group thermochemistry, kinetics and noncovalent interactions.
 https://doi.org/10.1039/C7CP04913G

 Schuett, Ole; Messmer, Peter; Hutter, Juerg; VandeVondele, Joost. 
 Electronic Structure Calculations on Graphics Processing Units, John
 Wiley & Sons, Ltd, 173-190 (2016). 
 GPU-Accelerated Sparse Matrix-Matrix Multiplication for
 Linear Scaling Density Functional Theory.
 https://doi.org/10.1002/9781118670712.ch8

 Heinecke, A; Henry, G; Hutchinson, M; Pabst, H. 
 Proceedings of Intl. Supercomputing Conference, 981-991 (2016). 
 LIBXSMM: Accelerating Small Matrix Multiplications
 by Runtime Code Generation.
 https://doi.org/10.1109/SC.2016.83

 Borstnik, U; VandeVondele, J; Weber, V; Hutter, J. 
 PARALLEL COMPUTING, 40 (5-6), 47-58 (2014). 
 Sparse matrix multiplication: The distributed block-compressed sparse
 row library.
 https://doi.org/10.1016/j.parco.2014.03.012

 Hutter, J; Iannuzzi, M; Schiffmann, F; VandeVondele, J. 
 WIREs Comput Mol Sci., 4 (1), 15-25 (2014). 
 CP2K: atomistic simulations of condensed matter systems.
 https://doi.org/10.1002/wcms.1159

 Grimme, S; Ehrlich, S; Goerigk, L. 
 JOURNAL OF COMPUTATIONAL CHEMISTRY, 32, 1456 (2011). 
 Effect of the damping function in dispersion corrected density functional theory.
 https://doi.org/10.1002/jcc.21759

 Grimme, S; Antony, J; Ehrlich, S; Krieg, H. 
 JOURNAL OF CHEMICAL PHYSICS, 132 (15), 154104 (2010). 
 A consistent and accurate ab initio parametrization of density
 functional dispersion correction (DFT-D) for the 94 elements H-Pu.
 https://doi.org/10.1063/1.3382344

 Guidon, M; Hutter, J; VandeVondele, J. 
 JOURNAL OF CHEMICAL THEORY AND COMPUTATION, 5 (11), 3010-3021 (2009). 
 Robust Periodic Hartree-Fock Exchange for Large-Scale Simulations Using
 Gaussian Basis Sets.
 https://doi.org/10.1021/ct900494g

 Guidon, M; Schiffmann, F; Hutter, J; VandeVondele, J. 
 JOURNAL OF CHEMICAL PHYSICS, 128 (21), 214104 (2008). 
 Ab initio molecular dynamics using hybrid density functionals.
 https://doi.org/10.1063/1.2931945

 VandeVondele, J; Hutter, J. 
 JOURNAL OF CHEMICAL PHYSICS, 127 (11), 114105 (2007). 
 Gaussian basis sets for accurate calculations on molecular systems in
 gas and condensed phases.
 https://doi.org/10.1063/1.2770708

 Frigo, M; Johnson, SG. 
 PROCEEDINGS OF THE IEEE, 93 (2), 216-231 (2005). 
 The design and implementation of FFTW3.
 https://doi.org/10.1109/JPROC.2004.840301

 Iannuzzi, M; Chassaing, T; Wallman, T; Hutter, J. 
 CHIMIA, 59 (7-8), 499-503 (2005). 
 Ground and excited state density functional calculations with the
 Gaussian and augmented-plane-wave method.
 https://doi.org/10.2533/000942905777676164

 VandeVondele, J; Hutter, J. 
 JOURNAL OF CHEMICAL PHYSICS, 118 (10), 4365-4369 (2003). 
 An efficient orbital transformation method for electronic structure
 calculations.
 https://doi.org/10.1063/1.1543154

 Martin,Richard L.. 
 The Journal of Chemical Physics, 118 (11), 4775-4777 (2003). 
 Natural transition orbitals.
 https://doi.org/10.1063/1.1558471

 Lippert, G; Hutter, J; Parrinello, M. 
 THEORETICAL CHEMISTRY ACCOUNTS, 103 (2), 124-140 (1999). 
 The Gaussian and augmented-plane-wave density functional method for ab
 initio molecular dynamics simulations.
 https://doi.org/10.1007/s002140050523

 Krack, M; Parrinello, M. 
 PHYSICAL CHEMISTRY CHEMICAL PHYSICS, 2 (10), 2105-2112 (2000). 
 All-electron ab-initio molecular dynamics.
 https://doi.org/10.1039/b001167n

 Martyna, GJ; Tuckerman, ME. 
 JOURNAL OF CHEMICAL PHYSICS, 110 (6), 2810-2821 (1999). 
 A reciprocal space based method for treating long range interactions in
 ab initio and force-field-based calculations in clusters.
 https://doi.org/10.1063/1.477923

 BECKE, AD. PHYSICAL REVIEW A, 38 (6), 3098-3100 (1988). 
 DENSITY-FUNCTIONAL EXCHANGE-ENERGY APPROXIMATION WITH CORRECT
 ASYMPTOTIC-BEHAVIOR.
 https://doi.org/10.1103/PhysRevA.38.3098

 LEE, CT; YANG, WT; PARR, RG. 
 PHYSICAL REVIEW B, 37 (2), 785-789 (1988). 
 DEVELOPMENT OF THE COLLE-SALVETTI CORRELATION-ENERGY FORMULA INTO A
 FUNCTIONAL OF THE ELECTRON-DENSITY.
 https://doi.org/10.1103/PhysRevB.37.785

 VOSKO, SH; WILK, L; NUSAIR, M. 
 CANADIAN JOURNAL OF PHYSICS, 58 (8), 1200-1211 (1980). 
 ACCURATE SPIN-DEPENDENT ELECTRON LIQUID CORRELATION ENERGIES FOR LOCAL
 SPIN-DENSITY CALCULATIONS - A CRITICAL ANALYSIS.
 https://doi.org/10.1139/p80-159


 -------------------------------------------------------------------------------
 -                                                                             -
 -                                T I M I N G                                  -
 -                                                                             -
 -------------------------------------------------------------------------------
 SUBROUTINE                       CALLS  ASD         SELF TIME        TOTAL TIME
                                MAXIMUM       AVERAGE  MAXIMUM  AVERAGE  MAXIMUM
 CP2K                                 1  1.0    0.012    0.016  266.132  266.133
 qs_forces                            1  2.0    0.001    0.001  265.132  265.133
 qs_energies                          1  3.0    0.000    0.000  162.510  162.510
 qs_energies_properties               1  4.0    0.000    0.000  141.122  141.123
 tddfpt                               1  5.0    0.000    0.000  141.122  141.123
 tddfpt_energies                      1  6.0    0.000    0.000  105.829  105.829
 tddfpt_davidson_solver               2  7.0    0.002    0.003  105.087  105.087
 tddfpt_compute_Aop_evects           10  8.0    0.000    0.000  104.771  104.772
 excited_state_energy                 2  3.5    0.001    0.001   89.080   89.080
 fft_wrap_pw1pw2                   3669 12.1    0.040    0.047   71.941   76.387
 fft_wrap_pw1pw2_200               2567 13.4    2.183    2.264   69.833   74.479
 response_equation                    1  4.0    0.000    0.000   67.226   67.226
 linres_solver                        1  5.0    0.001    0.003   67.192   67.192
 apply_op                            47  6.0    0.001    0.002   67.109   67.110
 fhxc_kernel                         10  9.0    0.003    0.004   66.512   66.512
 fft3d_ps                          3669 14.1   29.950   31.618   52.855   57.532
 integrate_four_center              247 10.5    0.054    0.057   56.816   56.826
 integrate_four_center_main         247 11.5    0.022    0.030   51.923   53.681
 integrate_four_center_bin        23465 12.5   51.901   53.662   51.901   53.662
 derivatives_four_center              4  8.5    0.004    0.007   51.037   51.586
 derivatives_four_center_main         4  9.5    0.000    0.001   50.945   51.494
 derivatives_four_center_bin        416 10.5   48.816   50.624   48.816   50.624
 xc_pw_derive                      1335 12.4    0.011    0.012   40.069   41.997
 apply_op_2_dft                      46  7.0    0.003    0.003   39.346   39.399
 tddfpt_apply_hfx                    10  9.0    0.001    0.002   38.159   38.159
 tddft_hfx_matrix                   180 10.0    0.004    0.004   37.773   37.774
 tddfpt_forces_main                   1  6.0    0.000    0.000   35.211   35.211
 prepare_gapw_den                   211  8.7    0.005    0.006   33.798   33.984
 tddfpt_forces                        1  7.0    0.000    0.000   33.885   33.885
 tddfpt_force_direct                  1  8.0    0.000    0.000   33.276   33.276
 tddfpt_kernel_force                  1  9.0    0.000    0.000   33.264   33.264
 fhxc_force                           1 10.0    0.001    0.001   33.264   33.264
 rebuild_ks_matrix                   17  6.8    0.000    0.000   32.599   32.599
 qs_ks_build_kohn_sham_matrix        17  7.8    0.002    0.003   32.599   32.599
 xc_pw_divergence                   198 12.3    0.005    0.006   24.344   26.353
 calculate_rho_elec                 205  9.4    0.337    0.360   22.586   22.591
 qs_rho_update_rho_low              200  8.5    0.002    0.002   22.536   22.537
 qs_fxc_analytic                     47  8.0    0.002    0.003   21.853   21.952
 response_force                       1  4.0    0.006    0.008   21.852   21.852
 tddfpt_apply_xc_analytic            90 10.0    1.033    1.156   21.127   21.317
 scf_env_do_scf                       1  4.0    0.000    0.000   21.182   21.182
 hfx_ks_matrix                       17  8.8    0.001    0.001   20.973   20.973
 xc_rho_set_and_dset_create         109 12.0    1.973    2.256   16.715   20.038
 calculate_rho0_atom                621  9.7   18.744   19.638   18.744   19.638
 qs_ks_update_qs_env                 18  6.0    0.000    0.000   19.118   19.118
 xc_calc_2nd_deriv_analytical       722 11.1    1.525    1.688   18.229   18.543
 mp_alltoall_z22v                  3669 16.1   12.476   18.479   12.476   18.479
 density_rs2pw                      205 10.4    0.008    0.009   17.591   18.451
 yz_to_x                           1880 15.2    4.310    4.531   12.637   17.639
 qs_vxc_create                       60 11.8    0.001    0.002   16.759   16.765
 xc_vxc_pw_create                    60 12.8    0.172    0.187   16.758   16.764
 integrate_v_rspace                 162  9.3    0.003    0.003   15.450   16.306
 xc_calc_2nd_deriv                   48  8.9    0.570    0.668   13.913   15.919
 scf_env_do_scf_inner_loop           16  5.0    0.000    0.001   15.382   15.382
 qs_ks_update_qs_env_forces           1  3.0    0.000    0.000   13.483   13.483
 tddfpt_apply_coulomb                90 10.0    0.002    0.002   11.145   12.385
 qs_fgxc_gdiff                        1 11.0    0.000    0.000   11.956   11.957
 qs_fxc_fdiff                         7 12.0    0.001    0.001   11.926   11.928
 potential_pw2rs                    162 10.3    0.016    0.017   10.819   11.678
 x_to_yz                           1789 15.0    6.060    6.887   10.209   11.268
 xc_prep_2nd_deriv                   49  8.9    0.000    0.000    8.555   10.250
 put_rho0_on_grid                   207  9.7    0.378    0.425    9.721    9.943
 apply_hfx                           46  7.0    0.001    0.001    9.780    9.788
 hfx_matrix                          46  8.0    0.001    0.001    9.776    9.784
 transfer_rs2pw                    1028 11.3    0.011    0.014    8.535    9.438
 pw_gather_p                       1880 14.2    8.160    8.579    8.160    8.579
 transfer_rs2pw_200                 413 12.0    3.342    3.474    6.702    7.665
 integrate_vhg0_rspace              158  9.8    1.725    1.833    7.363    7.372
 transfer_pw2rs                     807 11.2    0.007    0.009    7.111    7.142
 xc_functional_eval                3076 11.9    0.004    0.007    3.845    7.069
 pw_poisson_solve                   159  9.8    0.003    0.003    5.398    6.646
 mp_sum_d                          2223  9.0    3.962    6.341    3.962    6.341
 pw_scatter_p                      1789 14.0    6.011    6.130    6.011    6.130
 mp_waitany                       14680 13.0    4.776    5.821    4.776    5.821
 init_scf_loop                        1  5.0    0.000    0.000    5.800    5.800
 grid_collocate_task_list           205 10.4    4.302    5.741    4.302    5.741
 transfer_pw2rs_200                 321 12.0    2.752    2.782    5.504    5.555
 -------------------------------------------------------------------------------

 The number of warnings for this run is : 0
 
 -------------------------------------------------------------------------------
  **** **** ******  **  PROGRAM ENDED AT                 2025-01-05 09:46:17.774
 ***** ** ***  *** **   PROGRAM RAN ON                               nesh-clk433
 **    ****   ******    PROGRAM RAN BY                                  suphc356
 ***** **    ** ** **   PROGRAM PROCESS ID                               3974448
  **** **  *******  **  PROGRAM STOPPED IN /gxfs_work/cau/suphc356/NEWTONX_proje
                                           ct/Pyrazin_molecule/CP2K_GAPW_B3LYP_d
                                           ef2_TZVP/MOLDYN_BA_again/TRAJECTORIES
                                           /TRAJ20/TEMP
