 DBCSR| CPU Multiplication driver                                           XSMM (U)
 DBCSR| Multrec recursion limit                                              512 (U)
 DBCSR| Multiplication stack size                                           1000 (D)
 DBCSR| Maximum elements for images                                    UNLIMITED (U)
 DBCSR| Multiplicative factor virtual images                                   1 (U)
 DBCSR| Use multiplication densification                                       T (D)
 DBCSR| Multiplication size stacks                                             3 (U)
 DBCSR| Use memory pool for CPU allocation                                     F (U)
 DBCSR| Number of 3D layers                                               SINGLE (U)
 DBCSR| Use MPI memory allocation                                              F (U)
 DBCSR| Use RMA algorithm                                                      F (U)
 DBCSR| Use Communication thread                                               T (U)
 DBCSR| Communication thread load                                             83 (D)
 DBCSR| MPI: My process id                                                     0
 DBCSR| MPI: Number of processes                                              64
 DBCSR| OMP: Current number of threads                                         2
 DBCSR| OMP: Max number of threads                                             2
 DBCSR| Split modifier for TAS multiplication algorithm                  1.0E+00 (U)


  **** **** ******  **  PROGRAM STARTED AT               2024-10-24 08:28:41.859
 ***** ** ***  *** **   PROGRAM STARTED ON                           nesh-clk405
 **    ****   ******    PROGRAM STARTED BY                              suphc356
 ***** **    ** ** **   PROGRAM PROCESS ID                               3405701
  **** **  *******  **  PROGRAM STARTED IN /gxfs_work/cau/suphc356/NEWTONX_proje
                                           ct/Pyrazin_crystal/plain_pyrazine/CP2
                                           K_GPW_PBE_MOLOPT_TZVP/IC_TDDFT_AGAIN_
                                           STDA/JOB_AD

 CP2K| version string:                 CP2K version 2024.1 (Development Version)
 CP2K| source code revision number:                                  git:990486a
 CP2K| cp2kflags: omp libint fftw3 libxc libgrpp parallel mpi_f08 scalapack cosm
 CP2K|            a xsmm spglib mkl
 CP2K| is freely available from                            https://www.cp2k.org/
 CP2K| Program compiled at                          Mon Mar 11 08:48:45 CET 2024
 CP2K| Program compiled on                                           nesh-login2
 CP2K| Program compiled for                                                local
 CP2K| Data directory path                 /gxfs_work/cau/suphc356/cp2k_gcc/data
 CP2K| Input file name                                                  cp2k.inp

 GLOBAL| Force Environment number                                              1
 GLOBAL| Basis set file name                                        BASIS_MOLOPT
 GLOBAL| Potential file name                                           POTENTIAL
 GLOBAL| MM Potential file name                                     MM_POTENTIAL
 GLOBAL| Coordinate file name                                      __STD_INPUT__
 GLOBAL| Method name                                                        CP2K
 GLOBAL| Project name                                               testsuite_ad
 GLOBAL| Run type                                                   ENERGY_FORCE
 GLOBAL| FFT library                                                       FFTW3
 GLOBAL| Diagonalization library                                       ScaLAPACK
 GLOBAL| DGEMM library                                                      BLAS
 GLOBAL| Orthonormality check for eigenvectors                          DISABLED
 GLOBAL| Matrix multiplication library                                     COSMA
 GLOBAL| All-to-all communication in single precision                          F
 GLOBAL| FFTs using library dependent lengths                                  F
 GLOBAL| Grid backend                                                       AUTO
 GLOBAL| Global print level                                               MEDIUM
 GLOBAL| MPI I/O enabled                                                       T
 GLOBAL| Total number of message passing processes                            64
 GLOBAL| Number of threads for this process                                    2
 GLOBAL| This output is from process                                           0
 GLOBAL| Stack size for threads created by OpenMP (OMP_STACKSIZE)           256M
 GLOBAL| CPU model name                Intel(R) Xeon(R) Gold 6226R CPU @ 2.90GHz
 GLOBAL| CPUID                                                              1003
 GLOBAL| Compiled for CPUID                                                    0

 *** HINT in environment.F:920 :: The compiler target flags (generic) used ***
 *** to build this binary cannot exploit all extensions of this CPU model  ***
 *** (x86_avx512). Consider compiler target flags as part of FCFLAGS and   ***
 *** CFLAGS (ARCH file).                                                   ***


 MEMORY| system memory details [Kb]
 MEMORY|                        rank 0           min           max       average
 MEMORY| MemTotal            196683224     196682672     196683224     196683086
 MEMORY| MemFree             177908548     177907792     178561792     178233874
 MEMORY| Buffers                569476        416732        616548        548937
 MEMORY| Cached                1033388        691772       1033388        797745
 MEMORY| Slab                  2549392       2494948       3159316       2708188
 MEMORY| SReclaimable           196192        156500        196192        175917
 MEMORY| MemLikelyFree       179707604     179343128     180090980     179756473


 *** Fundamental physical constants (SI units) ***

 *** Literature: B. J. Mohr and B. N. Taylor,
 ***             CODATA recommended values of the fundamental physical
 ***             constants: 2006, Web Version 5.1
 ***             http://physics.nist.gov/constants

 Speed of light in vacuum [m/s]                             2.99792458000000E+08
 Magnetic constant or permeability of vacuum [N/A**2]       1.25663706143592E-06
 Electric constant or permittivity of vacuum [F/m]          8.85418781762039E-12
 Planck constant (h) [J*s]                                  6.62606896000000E-34
 Planck constant (h-bar) [J*s]                              1.05457162825177E-34
 Elementary charge [C]                                      1.60217648700000E-19
 Electron mass [kg]                                         9.10938215000000E-31
 Electron g factor [ ]                                     -2.00231930436220E+00
 Proton mass [kg]                                           1.67262163700000E-27
 Fine-structure constant                                    7.29735253760000E-03
 Rydberg constant [1/m]                                     1.09737315685270E+07
 Avogadro constant [1/mol]                                  6.02214179000000E+23
 Boltzmann constant [J/K]                                   1.38065040000000E-23
 Atomic mass unit [kg]                                      1.66053878200000E-27
 Bohr radius [m]                                            5.29177208590000E-11

 *** Conversion factors ***

 [u] -> [a.u.]                                              1.82288848426455E+03
 [Angstrom] -> [Bohr] = [a.u.]                              1.88972613288564E+00
 [a.u.] = [Bohr] -> [Angstrom]                              5.29177208590000E-01
 [a.u.] -> [s]                                              2.41888432650478E-17
 [a.u.] -> [fs]                                             2.41888432650478E-02
 [a.u.] -> [J]                                              4.35974393937059E-18
 [a.u.] -> [N]                                              8.23872205491840E-08
 [a.u.] -> [K]                                              3.15774647902944E+05
 [a.u.] -> [kJ/mol]                                         2.62549961709828E+03
 [a.u.] -> [kcal/mol]                                       6.27509468713739E+02
 [a.u.] -> [Pa]                                             2.94210107994716E+13
 [a.u.] -> [bar]                                            2.94210107994716E+08
 [a.u.] -> [atm]                                            2.90362800883016E+08
 [a.u.] -> [eV]                                             2.72113838565563E+01
 [a.u.] -> [Hz]                                             6.57968392072181E+15
 [a.u.] -> [1/cm] (wave numbers)                            2.19474631370540E+05
 [a.u./Bohr**2] -> [1/cm]                                   5.14048714338585E+03
 

 CELL_TOP| Volume [angstrom^3]:                                       424.784591
 CELL_TOP| Vector a [angstrom    11.252     0.000     0.000   |a| =    11.252000
 CELL_TOP| Vector b [angstrom     0.000     3.831     0.000   |b| =     3.831200
 CELL_TOP| Vector c [angstrom    -5.053     0.000     9.854   |c| =    11.074000
 CELL_TOP| Angle (b,c), alpha [degree]:                                90.000000
 CELL_TOP| Angle (a,c), beta  [degree]:                               117.150000
 CELL_TOP| Angle (a,b), gamma [degree]:                                90.000000
 CELL_TOP| Numerically orthorhombic:                                          NO
 CELL_TOP| Periodicity                                                       XYZ

 CELL| Volume [angstrom^3]:                                           424.784591
 CELL| Vector a [angstrom]:      11.252     0.000     0.000   |a| =    11.252000
 CELL| Vector b [angstrom]:       0.000     3.831     0.000   |b| =     3.831200
 CELL| Vector c [angstrom]:      -5.053     0.000     9.854   |c| =    11.074000
 CELL| Angle (b,c), alpha [degree]:                                    90.000000
 CELL| Angle (a,c), beta  [degree]:                                   117.150000
 CELL| Angle (a,b), gamma [degree]:                                    90.000000
 CELL| Numerically orthorhombic:                                              NO
 CELL| Periodicity                                                           XYZ

 CELL_REF| Volume [angstrom^3]:                                       424.784591
 CELL_REF| Vector a [angstrom    11.252     0.000     0.000   |a| =    11.252000
 CELL_REF| Vector b [angstrom     0.000     3.831     0.000   |b| =     3.831200
 CELL_REF| Vector c [angstrom    -5.053     0.000     9.854   |c| =    11.074000
 CELL_REF| Angle (b,c), alpha [degree]:                                90.000000
 CELL_REF| Angle (a,c), beta  [degree]:                               117.150000
 CELL_REF| Angle (a,b), gamma [degree]:                                90.000000
 CELL_REF| Numerically orthorhombic:                                          NO
 CELL_REF| Periodicity                                                       XYZ

 *******************************************************************************
 *******************************************************************************
 **                                                                           **
 **     #####                         ##              ##                      **
 **    ##   ##            ##          ##              ##                      **
 **   ##     ##                       ##            ######                    **
 **   ##     ##  ##   ##  ##   #####  ##  ##   ####   ##    #####    #####    **
 **   ##     ##  ##   ##  ##  ##      ## ##   ##      ##   ##   ##  ##   ##   **
 **   ##  ## ##  ##   ##  ##  ##      ####     ###    ##   ######   ######    **
 **    ##  ###   ##   ##  ##  ##      ## ##      ##   ##   ##       ##        **
 **     #######   #####   ##   #####  ##  ##  ####    ##    #####   ##        **
 **           ##                                                    ##        **
 **                                                                           **
 **                                                ... make the atoms dance   **
 **                                                                           **
 **            Copyright (C) by CP2K developers group (2000-2024)             **
 **                      J. Chem. Phys. 152, 194103 (2020)                    **
 **                                                                           **
 *******************************************************************************

 DFT| Spin restricted Kohn-Sham (RKS) calculation                            RKS
 DFT| Multiplicity                                                             1
 DFT| Number of spin states                                                    1
 DFT| Charge                                                                   0
 DFT| Self-interaction correction (SIC)                                       NO
 DFT| Cutoffs: density                                              1.000000E-10
 DFT|          gradient                                             1.000000E-10
 DFT|          tau                                                  1.000000E-10
 DFT|          cutoff_smoothing_range                               0.000000E+00
 DFT| XC density smoothing                                                  NONE
 DFT| XC derivatives                                                          PW

 FUNCTIONAL| PBE:
 FUNCTIONAL| J.P.Perdew, K.Burke, M.Ernzerhof, Phys. Rev. Letter, vol. 77, n 18,
 FUNCTIONAL|  pp. 3865-3868, (1996) {spin unpolarized}                          

 vdW POTENTIAL|                                                   Pair Potential
 vdW POTENTIAL|          DFT-D3 (Version 3.1)
 vdW POTENTIAL|          Potential Form: S. Grimme et al, JCP 132: 154104 (2010)
 vdW POTENTIAL|          Zero Damping
 vdW POTENTIAL|          Cutoff Radius [Bohr]:                             37.79
 vdW POTENTIAL|          s6 Scaling Factor:                               1.0000
 vdW POTENTIAL|          sr6 Scaling Factor:                              1.2170
 vdW POTENTIAL|          s8 Scaling Factor:                               0.7220
 vdW POTENTIAL|          Cutoff for CN calculation:                   0.1000E-05

 QS| Method:                                                                 GPW
 QS| Density plane wave grid type                        NON-SPHERICAL FULLSPACE
 QS| Number of grid levels:                                                    4
 QS| Density cutoff [a.u.]:                                                400.0
 QS| Multi grid cutoff [a.u.]: 1) grid level                               400.0
 QS|                           2) grid level                               133.3
 QS|                           3) grid level                                44.4
 QS|                           4) grid level                                14.8
 QS| Grid level progression factor:                                          3.0
 QS| Relative density cutoff [a.u.]:                                        30.0
 QS| Interaction thresholds: eps_pgf_orb:                                3.2E-09
 QS|                         eps_filter_matrix:                          0.0E+00
 QS|                         eps_core_charge:                            1.0E-19
 QS|                         eps_rho_gspace:                             1.0E-17
 QS|                         eps_rho_rspace:                             1.0E-17
 QS|                         eps_gvg_rspace:                             3.2E-09
 QS|                         eps_ppl:                                    1.0E-02
 QS|                         eps_ppnl:                                   3.2E-11


 ATOMIC KIND INFORMATION

  1. Atomic kind: N                                     Number of atoms:       8

     Orbital Basis Set                                           TZVP-MOLOPT-GTH

       Number of orbital shell sets:                                           1
       Number of orbital shells:                                               7
       Number of primitive Cartesian functions:                                7
       Number of Cartesian basis functions:                                   18
       Number of spherical basis functions:                                   17
       Norm type:                                                              2

       Normalised Cartesian orbitals:

                        Set   Shell   Orbital            Exponent    Coefficient

                          1       1    2s                9.042730      -0.237404
                                                         3.882225      -0.265910
                                                         1.512880       0.102064
                                                         0.586631       0.295369
                                                         0.222851       0.088647
                                                         0.084583       0.003860
                                                         0.039194       0.000722

                          1       2    3s                9.042730       0.259152
                                                         3.882225       0.251432
                                                         1.512880      -0.043896
                                                         0.586631      -0.328079
                                                         0.222851       0.175857
                                                         0.084583       0.069169
                                                         0.039194       0.004207

                          1       3    4s                9.042730       0.330627
                                                         3.882225       0.738242
                                                         1.512880      -0.570149
                                                         0.586631       0.474918
                                                         0.222851       0.192885
                                                         0.084583      -0.214824
                                                         0.039194       0.031577

                          1       4    3px               9.042730       0.822162
                                                         3.882225       0.990771
                                                         1.512880       0.665657
                                                         0.586631       0.321705
                                                         0.222851       0.063706
                                                         0.084583       0.004155
                                                         0.039194      -0.000005
                          1       4    3py               9.042730       0.822162
                                                         3.882225       0.990771
                                                         1.512880       0.665657
                                                         0.586631       0.321705
                                                         0.222851       0.063706
                                                         0.084583       0.004155
                                                         0.039194      -0.000005
                          1       4    3pz               9.042730       0.822162
                                                         3.882225       0.990771
                                                         1.512880       0.665657
                                                         0.586631       0.321705
                                                         0.222851       0.063706
                                                         0.084583       0.004155
                                                         0.039194      -0.000005

                          1       5    4px               9.042730      -0.251449
                                                         3.882225      -0.215479
                                                         1.512880      -0.200519
                                                         0.586631      -0.125283
                                                         0.222851       0.136219
                                                         0.084583       0.034362
                                                         0.039194       0.000879
                          1       5    4py               9.042730      -0.251449
                                                         3.882225      -0.215479
                                                         1.512880      -0.200519
                                                         0.586631      -0.125283
                                                         0.222851       0.136219
                                                         0.084583       0.034362
                                                         0.039194       0.000879
                          1       5    4pz               9.042730      -0.251449
                                                         3.882225      -0.215479
                                                         1.512880      -0.200519
                                                         0.586631      -0.125283
                                                         0.222851       0.136219
                                                         0.084583       0.034362
                                                         0.039194       0.000879

                          1       6    5px               9.042730      -1.546561
                                                         3.882225       0.742834
                                                         1.512880      -1.783177
                                                         0.586631       0.969458
                                                         0.222851       0.077327
                                                         0.084583      -0.117711
                                                         0.039194       0.027593
                          1       6    5py               9.042730      -1.546561
                                                         3.882225       0.742834
                                                         1.512880      -1.783177
                                                         0.586631       0.969458
                                                         0.222851       0.077327
                                                         0.084583      -0.117711
                                                         0.039194       0.027593
                          1       6    5pz               9.042730      -1.546561
                                                         3.882225       0.742834
                                                         1.512880      -1.783177
                                                         0.586631       0.969458
                                                         0.222851       0.077327
                                                         0.084583      -0.117711
                                                         0.039194       0.027593

                          1       7    4dx2              9.042730       1.099742
                                                         3.882225       0.532064
                                                         1.512880       0.873643
                                                         0.586631       0.456348
                                                         0.222851       0.017840
                                                         0.084583      -0.000857
                                                         0.039194      -0.000086
                          1       7    4dxy              9.042730       1.904809
                                                         3.882225       0.921562
                                                         1.512880       1.513195
                                                         0.586631       0.790419
                                                         0.222851       0.030900
                                                         0.084583      -0.001484
                                                         0.039194      -0.000150
                          1       7    4dxz              9.042730       1.904809
                                                         3.882225       0.921562
                                                         1.512880       1.513195
                                                         0.586631       0.790419
                                                         0.222851       0.030900
                                                         0.084583      -0.001484
                                                         0.039194      -0.000150
                          1       7    4dy2              9.042730       1.099742
                                                         3.882225       0.532064
                                                         1.512880       0.873643
                                                         0.586631       0.456348
                                                         0.222851       0.017840
                                                         0.084583      -0.000857
                                                         0.039194      -0.000086
                          1       7    4dyz              9.042730       1.904809
                                                         3.882225       0.921562
                                                         1.512880       1.513195
                                                         0.586631       0.790419
                                                         0.222851       0.030900
                                                         0.084583      -0.001484
                                                         0.039194      -0.000150
                          1       7    4dz2              9.042730       1.099742
                                                         3.882225       0.532064
                                                         1.512880       0.873643
                                                         0.586631       0.456348
                                                         0.222851       0.017840
                                                         0.084583      -0.000857
                                                         0.039194      -0.000086

       Atomic covalent radius [Angstrom]:                                  0.750

       Atomic van der Waals radius [Angstrom]:                             1.550

     GTH Potential information for                                    GTH-PBE-q5

       Description:                       Goedecker-Teter-Hutter pseudopotential
                                           Goedecker et al., PRB 54, 1703 (1996)
                                          Hartwigsen et al., PRB 58, 3641 (1998)
                                                      Krack, TCA 114, 145 (2005)

       Gaussian exponent of the core charge distribution:               6.208322
       Electronic configuration (s p d ...):                               2   3

       Parameters of the local part of the GTH pseudopotential:

                          rloc        C1          C2          C3          C4
                        0.283791  -12.415226    1.868096

       Parameters of the non-local part of the GTH pseudopotential:

                   l      r(l)      h(i,j,l)

                   0    0.255405   13.630263
                   1    0.245495

  2. Atomic kind: C                                     Number of atoms:      16

     Orbital Basis Set                                           TZVP-MOLOPT-GTH

       Number of orbital shell sets:                                           1
       Number of orbital shells:                                               7
       Number of primitive Cartesian functions:                                7
       Number of Cartesian basis functions:                                   18
       Number of spherical basis functions:                                   17
       Norm type:                                                              2

       Normalised Cartesian orbitals:

                        Set   Shell   Orbital            Exponent    Coefficient

                          1       1    2s                6.132625      -0.263661
                                                         2.625196      -0.231112
                                                         1.045457       0.042712
                                                         0.478316       0.306085
                                                         0.178617       0.065483
                                                         0.075145       0.000568
                                                         0.030287       0.000417

                          1       2    3s                6.132625       0.131937
                                                         2.625196       0.414269
                                                         1.045457      -0.593590
                                                         0.478316       0.644922
                                                         0.178617       0.069203
                                                         0.075145      -0.145101
                                                         0.030287       0.008247

                          1       3    4s                6.132625      -1.009391
                                                         2.625196      -0.608763
                                                         1.045457      -0.320627
                                                         0.478316       1.417678
                                                         0.178617      -0.917862
                                                         0.075145       0.286664
                                                         0.030287      -0.031483

                          1       4    3px               6.132625       0.562677
                                                         2.625196       0.633910
                                                         1.045457       0.379157
                                                         0.478316       0.235193
                                                         0.178617       0.052379
                                                         0.075145       0.003677
                                                         0.030287       0.000105
                          1       4    3py               6.132625       0.562677
                                                         2.625196       0.633910
                                                         1.045457       0.379157
                                                         0.478316       0.235193
                                                         0.178617       0.052379
                                                         0.075145       0.003677
                                                         0.030287       0.000105
                          1       4    3pz               6.132625       0.562677
                                                         2.625196       0.633910
                                                         1.045457       0.379157
                                                         0.478316       0.235193
                                                         0.178617       0.052379
                                                         0.075145       0.003677
                                                         0.030287       0.000105

                          1       5    4px               6.132625      -0.472364
                                                         2.625196      -0.221326
                                                         1.045457      -0.481781
                                                         0.478316       0.135466
                                                         0.178617       0.072281
                                                         0.075145       0.024920
                                                         0.030287       0.002706
                          1       5    4py               6.132625      -0.472364
                                                         2.625196      -0.221326
                                                         1.045457      -0.481781
                                                         0.478316       0.135466
                                                         0.178617       0.072281
                                                         0.075145       0.024920
                                                         0.030287       0.002706
                          1       5    4pz               6.132625      -0.472364
                                                         2.625196      -0.221326
                                                         1.045457      -0.481781
                                                         0.478316       0.135466
                                                         0.178617       0.072281
                                                         0.075145       0.024920
                                                         0.030287       0.002706

                          1       6    5px               6.132625      -0.321125
                                                         2.625196      -0.513960
                                                         1.045457      -0.659092
                                                         0.478316       1.236398
                                                         0.178617      -0.279443
                                                         0.075145       0.042466
                                                         0.030287      -0.008547
                          1       6    5py               6.132625      -0.321125
                                                         2.625196      -0.513960
                                                         1.045457      -0.659092
                                                         0.478316       1.236398
                                                         0.178617      -0.279443
                                                         0.075145       0.042466
                                                         0.030287      -0.008547
                          1       6    5pz               6.132625      -0.321125
                                                         2.625196      -0.513960
                                                         1.045457      -0.659092
                                                         0.478316       1.236398
                                                         0.178617      -0.279443
                                                         0.075145       0.042466
                                                         0.030287      -0.008547

                          1       7    4dx2              6.132625       0.874783
                                                         2.625196       0.375772
                                                         1.045457       0.653959
                                                         0.478316       0.191007
                                                         0.178617       0.018656
                                                         0.075145       0.003649
                                                         0.030287      -0.000011
                          1       7    4dxy              6.132625       1.515169
                                                         2.625196       0.650856
                                                         1.045457       1.132690
                                                         0.478316       0.330834
                                                         0.178617       0.032314
                                                         0.075145       0.006321
                                                         0.030287      -0.000019
                          1       7    4dxz              6.132625       1.515169
                                                         2.625196       0.650856
                                                         1.045457       1.132690
                                                         0.478316       0.330834
                                                         0.178617       0.032314
                                                         0.075145       0.006321
                                                         0.030287      -0.000019
                          1       7    4dy2              6.132625       0.874783
                                                         2.625196       0.375772
                                                         1.045457       0.653959
                                                         0.478316       0.191007
                                                         0.178617       0.018656
                                                         0.075145       0.003649
                                                         0.030287      -0.000011
                          1       7    4dyz              6.132625       1.515169
                                                         2.625196       0.650856
                                                         1.045457       1.132690
                                                         0.478316       0.330834
                                                         0.178617       0.032314
                                                         0.075145       0.006321
                                                         0.030287      -0.000019
                          1       7    4dz2              6.132625       0.874783
                                                         2.625196       0.375772
                                                         1.045457       0.653959
                                                         0.478316       0.191007
                                                         0.178617       0.018656
                                                         0.075145       0.003649
                                                         0.030287      -0.000011

       Atomic covalent radius [Angstrom]:                                  0.770

       Atomic van der Waals radius [Angstrom]:                             1.700

     GTH Potential information for                                    GTH-PBE-q4

       Description:                       Goedecker-Teter-Hutter pseudopotential
                                           Goedecker et al., PRB 54, 1703 (1996)
                                          Hartwigsen et al., PRB 58, 3641 (1998)
                                                      Krack, TCA 114, 145 (2005)

       Gaussian exponent of the core charge distribution:               4.364419
       Electronic configuration (s p d ...):                               2   2

       Parameters of the local part of the GTH pseudopotential:

                          rloc        C1          C2          C3          C4
                        0.338471   -8.803674    1.339211

       Parameters of the non-local part of the GTH pseudopotential:

                   l      r(l)      h(i,j,l)

                   0    0.302576    9.622487
                   1    0.291507

  3. Atomic kind: H                                     Number of atoms:      16

     Orbital Basis Set                                           TZVP-MOLOPT-GTH

       Number of orbital shell sets:                                           1
       Number of orbital shells:                                               4
       Number of primitive Cartesian functions:                                7
       Number of Cartesian basis functions:                                    6
       Number of spherical basis functions:                                    6
       Norm type:                                                              2

       Normalised Cartesian orbitals:

                        Set   Shell   Orbital            Exponent    Coefficient

                          1       1    2s               11.478000       0.129129
                                                         3.700759       0.177012
                                                         1.446884       0.141285
                                                         0.716815       0.245670
                                                         0.247919       0.094768
                                                         0.066918       0.004062
                                                         0.021708      -0.000053

                          1       2    3s               11.478000      -0.079256
                                                         3.700759      -0.152992
                                                         1.446884       0.015066
                                                         0.716815      -0.331234
                                                         0.247919       0.210690
                                                         0.066918       0.058630
                                                         0.021708      -0.003429

                          1       3    4s               11.478000      -0.246880
                                                         3.700759       0.023016
                                                         1.446884      -1.109374
                                                         0.716815       1.524652
                                                         0.247919      -0.227968
                                                         0.066918      -0.037343
                                                         0.021708       0.005696

                          1       4    3px              11.478000       0.325290
                                                         3.700759       0.187466
                                                         1.446884       0.443300
                                                         0.716815       0.267738
                                                         0.247919       0.088285
                                                         0.066918       0.019092
                                                         0.021708       0.000629
                          1       4    3py              11.478000       0.325290
                                                         3.700759       0.187466
                                                         1.446884       0.443300
                                                         0.716815       0.267738
                                                         0.247919       0.088285
                                                         0.066918       0.019092
                                                         0.021708       0.000629
                          1       4    3pz              11.478000       0.325290
                                                         3.700759       0.187466
                                                         1.446884       0.443300
                                                         0.716815       0.267738
                                                         0.247919       0.088285
                                                         0.066918       0.019092
                                                         0.021708       0.000629

       Atomic covalent radius [Angstrom]:                                  0.320

       Atomic van der Waals radius [Angstrom]:                             1.090

     GTH Potential information for                                    GTH-PBE-q1

       Description:                       Goedecker-Teter-Hutter pseudopotential
                                           Goedecker et al., PRB 54, 1703 (1996)
                                          Hartwigsen et al., PRB 58, 3641 (1998)
                                                      Krack, TCA 114, 145 (2005)

       Gaussian exponent of the core charge distribution:              12.500000
       Electronic configuration (s p d ...):                                   1

       Parameters of the local part of the GTH pseudopotential:

                          rloc        C1          C2          C3          C4
                        0.200000   -4.178900    0.724463


 MOLECULE KIND INFORMATION


 All atoms are their own molecule, skipping detailed information


 TOTAL NUMBERS AND MAXIMUM NUMBERS

  Total number of            - Atomic kinds:                                   3
                             - Atoms:                                         40
                             - Shell sets:                                    40
                             - Shells:                                       232
                             - Primitive Cartesian functions:                280
                             - Cartesian basis functions:                    528
                             - Spherical basis functions:                    504

  Maximum angular momentum of- Orbital basis functions:                        2
                             - Local part of the GTH pseudopotential:          2
                             - Non-local part of the GTH pseudopotential:      0


 MODULE QUICKSTEP: ATOMIC COORDINATES IN ANGSTROM

   Atom Kind Element         X             Y             Z       Z(eff)     Mass
      1    1 N     7      0.048158      0.046379      1.391296   5.0000  14.0067
      2    2 C     6      0.643728      0.957422      0.626460   4.0000  12.0107
      3    3 H     1      1.145927      1.780003      1.125595   1.0000   1.0079
      4    2 C     6     -0.653046     -0.853733      0.700271   4.0000  12.0107
      5    3 H     1     -1.109980     -1.665650      1.258057   1.0000   1.0079
      6    1 N     7      4.458533      1.794891      0.813274   5.0000  14.0067
      7    2 C     6      5.432943      0.898077      0.973056   4.0000  12.0107
      8    3 H     1      5.259188      0.097541      1.686273   1.0000   1.0079
      9    2 C     6      4.725287      2.698597     -0.127135   4.0000  12.0107
     10    3 H     1      4.018829      3.514000     -0.248786   1.0000   1.0079
     11    1 N     7     -2.695831      1.957181      3.455892   5.0000  14.0067
     12    2 C     6     -3.290344      2.860482      4.232597   4.0000  12.0107
     13    3 H     1     -3.822861      3.670414      3.743597   1.0000   1.0079
     14    2 C     6     -1.983865      1.061786      4.142130   4.0000  12.0107
     15    3 H     1     -1.514964      0.260957      3.577310   1.0000   1.0079
     16    1 N     7     -6.932395      3.769200      4.211504   5.0000  14.0067
     17    2 C     6     -7.929506      2.917788      3.976217   4.0000  12.0107
     18    3 H     1     -7.808158      2.227824      3.140454   1.0000   1.0079
     19    2 C     6     -7.174786      4.624297      5.201606   4.0000  12.0107
     20    3 H     1     -6.382444      5.320952      5.470730   1.0000   1.0079
     21    1 N     7     -0.153493      0.073310     -1.453029   5.0000  14.0067
     22    2 C     6     -0.836603     -0.776363     -0.690626   4.0000  12.0107
     23    3 H     1     -1.552461     -1.439312     -1.177597   1.0000   1.0079
     24    2 C     6      0.629306      0.912719     -0.778435   4.0000  12.0107
     25    3 H     1      1.266857      1.580314     -1.360164   1.0000   1.0079
     26    1 N     7     -4.376658     -2.020896     -0.717824   5.0000  14.0067
     27    2 C     6     -5.377497     -1.168599     -0.933272   4.0000  12.0107
     28    3 H     1     -5.270867     -0.475786     -1.768282   1.0000   1.0079
     29    2 C     6     -4.601531     -2.876780      0.276160   4.0000  12.0107
     30    3 H     1     -3.804364     -3.573526      0.530800   1.0000   1.0079
     31    1 N     7      2.581741     -1.855838     -3.543716   5.0000  14.0067
     32    2 C     6      3.242973     -2.712418     -4.319425   4.0000  12.0107
     33    3 H     1      3.932131     -3.404840     -3.836799   1.0000   1.0079
     34    2 C     6      1.808644     -1.005523     -4.217876   4.0000  12.0107
     35    3 H     1      1.201312     -0.314121     -3.633479   1.0000   1.0079
     36    1 N     7      6.930402     -3.880621     -4.152902   5.0000  14.0067
     37    2 C     6      7.900536     -2.982192     -3.977666   4.0000  12.0107
     38    3 H     1      7.713417     -2.180378     -3.269754   1.0000   1.0079
     39    2 C     6      7.213749     -4.783629     -5.089950   4.0000  12.0107
     40    3 H     1      6.508896     -5.598197     -5.226702   1.0000   1.0079



 SCF PARAMETERS         Density guess:                                   RESTART
                        --------------------------------------------------------
                        max_scf:                                              10
                        max_scf_history:                                       0
                        max_diis:                                              4
                        --------------------------------------------------------
                        eps_scf:                                        1.00E-09
                        eps_scf_history:                                0.00E+00
                        eps_diis:                                       1.00E-01
                        eps_eigval:                                     1.00E-05
                        --------------------------------------------------------
                        level_shift [a.u.]:                             0.000000
                        --------------------------------------------------------
                        Outer loop SCF in use 
                        No variables optimised in outer loop
                        eps_scf                                         1.00E-09
                        max_scf                                              900
                        No outer loop optimization
                        step_size                                       5.00E-01

 PW_GRID| Information for grid number                                          1
 PW_GRID| Grid distributed over                                    64 processors
 PW_GRID| Real space group dimensions                                    64    1
 PW_GRID| the grid is blocked:                                                NO
 PW_GRID| Cutoff [a.u.]                                                    400.0
 PW_GRID| spherical cutoff:                                                   NO
 PW_GRID|   Bounds   1            -96      95                Points:         192
 PW_GRID|   Bounds   2            -36      35                Points:          72
 PW_GRID|   Bounds   3            -96      95                Points:         192
 PW_GRID| Volume element (a.u.^3)  0.1080E-02     Volume (a.u.^3)      2866.5885
 PW_GRID| Grid span                                                    FULLSPACE
 PW_GRID|   Distribution                         Average         Max         Min
 PW_GRID|   G-Vectors                            41472.0       41472       41472
 PW_GRID|   G-Rays                                 216.0         216         216
 PW_GRID|   Real Space Points                    41472.0       41472       41472

 PW_GRID| Information for grid number                                          2
 PW_GRID| Number of the reference grid                                         1
 PW_GRID| Grid distributed over                                    64 processors
 PW_GRID| Real space group dimensions                                    64    1
 PW_GRID| the grid is blocked:                                                NO
 PW_GRID| Cutoff [a.u.]                                                    133.3
 PW_GRID| spherical cutoff:                                                   NO
 PW_GRID|   Bounds   1            -60      59                Points:         120
 PW_GRID|   Bounds   2            -20      19                Points:          40
 PW_GRID|   Bounds   3            -60      59                Points:         120
 PW_GRID| Volume element (a.u.^3)  0.4977E-02     Volume (a.u.^3)      2866.5885
 PW_GRID| Grid span                                                    FULLSPACE
 PW_GRID|   Distribution                         Average         Max         Min
 PW_GRID|   G-Vectors                             9000.0        9600        8400
 PW_GRID|   G-Rays                                  75.0          80          70
 PW_GRID|   Real Space Points                     9000.0        9600        4800

 PW_GRID| Information for grid number                                          3
 PW_GRID| Number of the reference grid                                         1
 PW_GRID| Grid distributed over                                    64 processors
 PW_GRID| Real space group dimensions                                    64    1
 PW_GRID| the grid is blocked:                                                NO
 PW_GRID| Cutoff [a.u.]                                                     44.4
 PW_GRID| spherical cutoff:                                                   NO
 PW_GRID|   Bounds   1            -32      31                Points:          64
 PW_GRID|   Bounds   2            -12      11                Points:          24
 PW_GRID|   Bounds   3            -32      31                Points:          64
 PW_GRID| Volume element (a.u.^3)  0.2916E-01     Volume (a.u.^3)      2866.5885
 PW_GRID| Grid span                                                    FULLSPACE
 PW_GRID|   Distribution                         Average         Max         Min
 PW_GRID|   G-Vectors                             1536.0        1920        1152
 PW_GRID|   G-Rays                                  24.0          30          18
 PW_GRID|   Real Space Points                     1536.0        1536        1536

 PW_GRID| Information for grid number                                          4
 PW_GRID| Number of the reference grid                                         1
 PW_GRID| Grid distributed over                                    64 processors
 PW_GRID| Real space group dimensions                                     8    8
 PW_GRID| the grid is blocked:                                                NO
 PW_GRID| Cutoff [a.u.]                                                     14.8
 PW_GRID| spherical cutoff:                                                   NO
 PW_GRID|   Bounds   1            -20      19                Points:          40
 PW_GRID|   Bounds   2             -7       7                Points:          15
 PW_GRID|   Bounds   3            -20      19                Points:          40
 PW_GRID| Volume element (a.u.^3)  0.1194         Volume (a.u.^3)      2866.5885
 PW_GRID| Grid span                                                    FULLSPACE
 PW_GRID|   Distribution                         Average         Max         Min
 PW_GRID|   G-Vectors                              375.0         560         280
 PW_GRID|   G-Rays                                   9.4          14           7
 PW_GRID|   Real Space Points                      375.0         400         200

 POISSON| Solver                                                        PERIODIC
 POISSON| Periodicity                                                        XYZ

 RS_GRID| Information for grid number                                          1
 RS_GRID|   Bounds   1            -96      95                Points:         192
 RS_GRID|   Bounds   2            -36      35                Points:          72
 RS_GRID|   Bounds   3            -96      95                Points:         192
 RS_GRID| Real space distribution over                                  8 groups
 RS_GRID| Real space distribution along direction                              1
 RS_GRID| Border size                                                         46
 RS_GRID| Real space distribution over                                  8 groups
 RS_GRID| Real space distribution along direction                              3
 RS_GRID| Border size                                                         46
 RS_GRID|   Distribution                         Average         Max         Min
 RS_GRID|   Planes                                 116.0         116         116
 RS_GRID|   Distribution                         Average         Max         Min
 RS_GRID|   Planes                                 116.0         116         116

 RS_GRID| Information for grid number                                          2
 RS_GRID|   Bounds   1            -60      59                Points:         120
 RS_GRID|   Bounds   2            -20      19                Points:          40
 RS_GRID|   Bounds   3            -60      59                Points:         120
 RS_GRID| Real space fully replicated
 RS_GRID| Group size                                                           1

 RS_GRID| Information for grid number                                          3
 RS_GRID|   Bounds   1            -32      31                Points:          64
 RS_GRID|   Bounds   2            -12      11                Points:          24
 RS_GRID|   Bounds   3            -32      31                Points:          64
 RS_GRID| Real space fully replicated
 RS_GRID| Group size                                                           1

 RS_GRID| Information for grid number                                          4
 RS_GRID|   Bounds   1            -20      19                Points:          40
 RS_GRID|   Bounds   2             -7       7                Points:          15
 RS_GRID|   Bounds   3            -20      19                Points:          40
 RS_GRID| Real space fully replicated
 RS_GRID| Group size                                                           1

 Number of electrons:                                                        120
 Number of occupied orbitals:                                                 60
 Number of molecular orbitals:                                                60

 Number of orbital functions:                                                504
 Number of independent orbital functions:                                    504

 Extrapolation method: initial_guess

 *** WARNING in qs_initial_guess.F:306 :: User requested to restart the    ***
 *** wavefunction from the file named: testsuite_ad-RESTART.wfn. This file ***
 *** does not exist. Please check the existence of the file or change      ***
 *** properly the value of the keyword WFN_RESTART_FILE_NAME. Calculation  ***
 *** continues using ATOMIC GUESS.                                         ***


 Atomic guess: The first density matrix is obtained in terms of atomic orbitals
               and electronic configurations assigned to each atomic kind

 Guess for atomic kind: N

 Electronic structure
    Total number of core electrons                                          2.00
    Total number of valence electrons                                       5.00
    Total number of electrons                                               7.00
    Multiplicity                                                   not specified
    S   [  2.00] 2.00
    P      3.00


 *******************************************************************************
                  Iteration          Convergence                     Energy [au]
 *******************************************************************************
                          1        0.286634                      -9.511206244233
                          2        0.226136                      -9.521008071593
                          3        0.334941E-02                  -9.546227953912
                          4        0.319255E-03                  -9.546232857587
                          5        0.231075E-05                  -9.546232901719
                          6        0.107038E-05                  -9.546232901721
                          7        0.383401E-08                  -9.546232901721

 Energy components [Hartree]           Total Energy ::           -9.546232901721
                                        Band Energy ::           -2.058537546162
                                     Kinetic Energy ::            6.757650655055
                                   Potential Energy ::          -16.303883556777
                                      Virial (-V/T) ::            2.412655579433
                                        Core Energy ::          -15.539824007853
                                          XC Energy ::           -2.162245692268
                                     Coulomb Energy ::            8.155836798399
                       Total Pseudopotential Energy ::          -22.334860094811
                       Local Pseudopotential Energy ::          -23.272667011764
                    Nonlocal Pseudopotential Energy ::            0.937806916952
                                        Confinement ::            0.373854319030

 Orbital energies  State     L     Occupation   Energy[a.u.]          Energy[eV]

                       1     0          2.000      -0.664192          -18.073575

                       1     1          3.000      -0.243385           -6.622835


 Total Electron Density at R=0:                                         0.000041

 Guess for atomic kind: C

 Electronic structure
    Total number of core electrons                                          2.00
    Total number of valence electrons                                       4.00
    Total number of electrons                                               6.00
    Multiplicity                                                   not specified
    S   [  2.00] 2.00
    P      2.00


 *******************************************************************************
                  Iteration          Convergence                     Energy [au]
 *******************************************************************************
                          1        0.106529                      -5.270272483724
                          2        0.700070E-01                  -5.275253796046
                          3        0.257977E-03                  -5.278907327451
                          4        0.489006E-04                  -5.278907347137
                          5        0.128506E-06                  -5.278907348859

 Energy components [Hartree]           Total Energy ::           -5.278907348859
                                        Band Energy ::           -1.297504853112
                                     Kinetic Energy ::            3.437573111169
                                   Potential Energy ::           -8.716480460029
                                      Virial (-V/T) ::            2.535649476576
                                        Core Energy ::           -8.301868323195
                                          XC Energy ::           -1.382083082551
                                     Coulomb Energy ::            4.405044056886
                       Total Pseudopotential Energy ::          -11.773288188248
                       Local Pseudopotential Energy ::          -12.379139771298
                    Nonlocal Pseudopotential Energy ::            0.605851583050
                                        Confinement ::            0.338467538844

 Orbital energies  State     L     Occupation   Energy[a.u.]          Energy[eV]

                       1     0          2.000      -0.478379          -13.017346

                       1     1          2.000      -0.170374           -4.636105


 Total Electron Density at R=0:                                         0.000341

 Guess for atomic kind: H

 Electronic structure
    Total number of core electrons                                          0.00
    Total number of valence electrons                                       1.00
    Total number of electrons                                               1.00
    Multiplicity                                                   not specified
    S      1.00


 *******************************************************************************
                  Iteration          Convergence                     Energy [au]
 *******************************************************************************
                          1        0.363633E-02                  -0.424359639014
                          2        0.457201E-03                  -0.424374328003
                          3        0.158035E-04                  -0.424374562686
                          4        0.544881E-08                  -0.424374562963

 Energy components [Hartree]           Total Energy ::           -0.424374562963
                                        Band Energy ::           -0.197817388557
                                     Kinetic Energy ::            0.463739149097
                                   Potential Energy ::           -0.888113712060
                                      Virial (-V/T) ::            1.915114809241
                                        Core Energy ::           -0.479953896523
                                          XC Energy ::           -0.245504363650
                                     Coulomb Energy ::            0.301083697210
                       Total Pseudopotential Energy ::           -0.962570132454
                       Local Pseudopotential Energy ::           -0.962570132454
                    Nonlocal Pseudopotential Energy ::            0.000000000000
                                        Confinement ::            0.188770868335

 Orbital energies  State     L     Occupation   Energy[a.u.]          Energy[eV]

                       1     0          1.000      -0.197817           -5.382885


 Total Electron Density at R=0:                                         0.235042
 Re-scaling the density matrix to get the right number of electrons
                  # Electrons              Trace(P)               Scaling factor
                          120               120.351                        0.997


 SCF WAVEFUNCTION OPTIMIZATION

  ----------------------------------- OT ---------------------------------------
  Minimizer      : DIIS                : direct inversion
                                         in the iterative subspace
                                         using   7 DIIS vectors
                                         safer DIIS on
  Preconditioner : FULL_ALL            : diagonalization, state selective
  Precond_solver : DEFAULT
  stepsize       :    0.15000000                  energy_gap     :    0.08000000
  eps_taylor     :   0.10000E-15                  max_taylor     :             4
  ----------------------------------- OT ---------------------------------------

  Step     Update method      Time    Convergence         Total energy    Change
  ------------------------------------------------------------------------------
     1 OT DIIS     0.15E+00    4.5     0.08094224      -167.1266837369 -1.67E+02
     2 OT DIIS     0.15E+00    7.8     0.17941072      -164.1387497203  2.99E+00
     3 OT DIIS     0.15E+00    7.8     0.05660327      -173.7770036929 -9.64E+00
     4 OT DIIS     0.15E+00    7.9     0.07719890      -175.2663843215 -1.49E+00
     5 OT DIIS     0.15E+00    7.8     0.03196192      -177.7745704683 -2.51E+00
     6 OT DIIS     0.15E+00    7.8     0.02427640      -178.5239994858 -7.49E-01
     7 OT DIIS     0.15E+00    7.8     0.01714170      -179.0077601709 -4.84E-01
     8 OT DIIS     0.15E+00    7.8     0.01158436      -179.3454909112 -3.38E-01
     9 OT DIIS     0.15E+00    7.8     0.00828444      -179.6112558219 -2.66E-01
    10 OT DIIS     0.15E+00    7.8     0.00710459      -179.7060641427 -9.48E-02

  Leaving inner SCF loop after reaching    10 steps.


  Electronic density on regular grids:       -120.0000000000       -0.0000000000
  Core density on regular grids:              120.0000000000        0.0000000000
  Total charge density on r-space grids:        0.0000000000
  Total charge density g-space grids:           0.0000000000

  Overlap energy of the core charge distribution:               0.00000826231034
  Self energy of the core charge distribution:               -434.73266088811687
  Core Hamiltonian energy:                                    134.04518650500557
  Hartree energy:                                             174.99407915554781
  Exchange-correlation energy:                                -53.93596598438741
  Dispersion energy:                                           -0.07671119308324

  Total energy:                                              -179.70606414272376

  outer SCF iter =    1 RMS gradient =   0.71E-02 energy =       -179.7060641427

  ----------------------------------- OT ---------------------------------------
  Minimizer      : DIIS                : direct inversion
                                         in the iterative subspace
                                         using   7 DIIS vectors
                                         safer DIIS on
  Preconditioner : FULL_ALL            : diagonalization, state selective
  Precond_solver : DEFAULT
  stepsize       :    0.15000000                  energy_gap     :    0.08000000
  eps_taylor     :   0.10000E-15                  max_taylor     :             4
  ----------------------------------- OT ---------------------------------------

  Step     Update method      Time    Convergence         Total energy    Change
  ------------------------------------------------------------------------------
     1 OT DIIS     0.15E+00   15.8     0.00904778      -179.7979206768 -9.19E-02
     2 OT DIIS     0.15E+00    7.8     0.01058772      -179.9306182667 -1.33E-01
     3 OT DIIS     0.15E+00    7.8     0.00660941      -179.9855571304 -5.49E-02
     4 OT DIIS     0.15E+00    7.8     0.00242371      -180.0143874586 -2.88E-02
     5 OT DIIS     0.15E+00    7.9     0.00079650      -180.0192472467 -4.86E-03
     6 OT DIIS     0.15E+00    7.8     0.00026610      -180.0198400257 -5.93E-04
     7 OT DIIS     0.15E+00    7.9     0.00017538      -180.0199248542 -8.48E-05
     8 OT DIIS     0.15E+00    7.8     0.00008983      -180.0199524008 -2.75E-05
     9 OT DIIS     0.15E+00    7.9     0.00002157      -180.0199595480 -7.15E-06
    10 OT DIIS     0.15E+00    7.9     0.00000802      -180.0199601417 -5.94E-07

  Leaving inner SCF loop after reaching    10 steps.


  Electronic density on regular grids:       -120.0000000000        0.0000000000
  Core density on regular grids:              120.0000000000        0.0000000000
  Total charge density on r-space grids:        0.0000000000
  Total charge density g-space grids:           0.0000000000

  Overlap energy of the core charge distribution:               0.00000826231034
  Self energy of the core charge distribution:               -434.73266088811687
  Core Hamiltonian energy:                                    133.71243175715884
  Hartree energy:                                             175.04874053832316
  Exchange-correlation energy:                                -53.97176861825555
  Dispersion energy:                                           -0.07671119308324

  Total energy:                                              -180.01996014166335

  outer SCF iter =    2 RMS gradient =   0.80E-05 energy =       -180.0199601417

  ----------------------------------- OT ---------------------------------------
  Minimizer      : DIIS                : direct inversion
                                         in the iterative subspace
                                         using   7 DIIS vectors
                                         safer DIIS on
  Preconditioner : FULL_ALL            : diagonalization, state selective
  Precond_solver : DEFAULT
  stepsize       :    0.15000000                  energy_gap     :    0.08000000
  eps_taylor     :   0.10000E-15                  max_taylor     :             4
  ----------------------------------- OT ---------------------------------------

  Step     Update method      Time    Convergence         Total energy    Change
  ------------------------------------------------------------------------------
     1 OT DIIS     0.15E+00   15.8     0.00000531      -180.0199602022 -6.06E-08
     2 OT DIIS     0.15E+00    7.8     0.00000807      -180.0199601813  2.09E-08
     3 OT DIIS     0.15E+00    7.8     0.00000082      -180.0199602370 -5.57E-08
     4 OT DIIS     0.15E+00    7.8     0.00000074      -180.0199602381 -1.10E-09
     5 OT DIIS     0.15E+00    7.8     0.00000019      -180.0199602387 -5.79E-10
     6 OT DIIS     0.15E+00    7.8     0.00000002      -180.0199602387 -3.39E-11
     7 OT DIIS     0.15E+00    7.8     9.9651E-09      -180.0199602387 -5.68E-13
     8 OT DIIS     0.15E+00    7.8     5.4034E-09      -180.0199602387 -2.84E-14
     9 OT DIIS     0.15E+00    7.8     2.2642E-09      -180.0199602387 -1.14E-13
    10 OT DIIS     0.15E+00    7.8     1.0974E-09      -180.0199602387  5.68E-14

  Leaving inner SCF loop after reaching    10 steps.


  Electronic density on regular grids:       -120.0000000000        0.0000000000
  Core density on regular grids:              120.0000000000        0.0000000000
  Total charge density on r-space grids:        0.0000000000
  Total charge density g-space grids:           0.0000000000

  Overlap energy of the core charge distribution:               0.00000826231034
  Self energy of the core charge distribution:               -434.73266088811687
  Core Hamiltonian energy:                                    133.71248956490194
  Hartree energy:                                             175.04869444120766
  Exchange-correlation energy:                                -53.97178042595918
  Dispersion energy:                                           -0.07671119308324

  Total energy:                                              -180.01996023873934

  outer SCF iter =    3 RMS gradient =   0.11E-08 energy =       -180.0199602387

  ----------------------------------- OT ---------------------------------------
  Minimizer      : DIIS                : direct inversion
                                         in the iterative subspace
                                         using   7 DIIS vectors
                                         safer DIIS on
  Preconditioner : FULL_ALL            : diagonalization, state selective
  Precond_solver : DEFAULT
  stepsize       :    0.15000000                  energy_gap     :    0.08000000
  eps_taylor     :   0.10000E-15                  max_taylor     :             4
  ----------------------------------- OT ---------------------------------------

  Step     Update method      Time    Convergence         Total energy    Change
  ------------------------------------------------------------------------------
     1 OT DIIS     0.15E+00   15.8     2.0429E-10      -180.0199602387  0.00E+00

  *** SCF run converged in     1 steps ***


  Electronic density on regular grids:       -120.0000000000        0.0000000000
  Core density on regular grids:              120.0000000000        0.0000000000
  Total charge density on r-space grids:        0.0000000000
  Total charge density g-space grids:           0.0000000000

  Overlap energy of the core charge distribution:               0.00000826231034
  Self energy of the core charge distribution:               -434.73266088811687
  Core Hamiltonian energy:                                    133.71248954173498
  Hartree energy:                                             175.04869445990008
  Exchange-correlation energy:                                -53.97178042148462
  Dispersion energy:                                           -0.07671119308324

  Total energy:                                              -180.01996023873934

  outer SCF iter =    4 RMS gradient =   0.20E-09 energy =       -180.0199602387
  outer SCF loop converged in   4 iterations or   31 steps


 !-----------------------------------------------------------------------------!
                     Mulliken Population Analysis

 #  Atom  Element  Kind  Atomic population                           Net charge
       1     N        1          5.272244                             -0.272244
       2     C        2          4.000233                             -0.000233
       3     H        3          0.884255                              0.115745
       4     C        2          4.018173                             -0.018173
       5     H        3          0.863905                              0.136095
       6     N        1          5.285826                             -0.285826
       7     C        2          3.995877                              0.004123
       8     H        3          0.866909                              0.133091
       9     C        2          3.988822                              0.011178
      10     H        3          0.887812                              0.112188
      11     N        1          5.276810                             -0.276810
      12     C        2          3.989683                              0.010317
      13     H        3          0.883650                              0.116350
      14     C        2          4.005613                             -0.005613
      15     H        3          0.864537                              0.135463
      16     N        1          5.259839                             -0.259839
      17     C        2          3.968558                              0.031442
      18     H        3          0.877412                              0.122588
      19     C        2          3.949476                              0.050524
      20     H        3          0.908721                              0.091279
      21     N        1          5.255409                             -0.255409
      22     C        2          3.957665                              0.042335
      23     H        3          0.899950                              0.100050
      24     C        2          3.971145                              0.028855
      25     H        3          0.879614                              0.120386
      26     N        1          5.265430                             -0.265430
      27     C        2          3.968154                              0.031846
      28     H        3          0.880869                              0.119131
      29     C        2          3.948899                              0.051101
      30     H        3          0.908166                              0.091834
      31     N        1          5.266009                             -0.266009
      32     C        2          3.962802                              0.037198
      33     H        3          0.898693                              0.101307
      34     C        2          3.976432                              0.023568
      35     H        3          0.878849                              0.121151
      36     N        1          5.290889                             -0.290889
      37     C        2          3.997294                              0.002706
[...]
 flops    32 x    28 x    28              8981504       0.0%    100.0%      0.0%
 flops     6 x     6 x    28              9047808       0.0%    100.0%      0.0%
 flops    32 x    32 x    28             10264576       0.0%    100.0%      0.0%
 flops    28 x    32 x    32             10264576       0.0%    100.0%      0.0%
 flops    32 x    28 x    32             10264576       0.0%    100.0%      0.0%
 flops     6 x     6 x    32             10340352       0.0%    100.0%      0.0%
 flops    17 x    32 x    32             10340352       0.0%    100.0%      0.0%
 flops    46 x    28 x    28             11035584       0.0%    100.0%      0.0%
 flops    32 x    32 x    32             11730944       0.0%    100.0%      0.0%
 flops    46 x    28 x    32             12612096       0.0%    100.0%      0.0%
 flops    46 x    32 x    28             12612096       0.0%    100.0%      0.0%
 flops    46 x    32 x    32             14413824       0.0%    100.0%      0.0%
 flops     6 x    17 x    28             36191232       0.0%    100.0%      0.0%
 flops    17 x     6 x    28             36191232       0.0%    100.0%      0.0%
 flops    23 x    28 x    28             38624544       0.0%    100.0%      0.0%
 flops     6 x    17 x    32             41361408       0.0%    100.0%      0.0%
 flops    17 x     6 x    32             41361408       0.0%    100.0%      0.0%
 flops    23 x    32 x    28             44142336       0.0%    100.0%      0.0%
 flops    23 x    28 x    32             44142336       0.0%    100.0%      0.0%
 flops    23 x    32 x    32             50448384       0.0%    100.0%      0.0%
 flops    40 x    28 x    28             67173120       0.0%    100.0%      0.0%
 flops     6 x     6 x     6             67454640       0.0%    100.0%      0.0%
 flops    40 x    32 x    28             76769280       0.0%    100.0%      0.0%
 flops    40 x    28 x    32             76769280       0.0%    100.0%      0.0%
 flops    40 x    32 x    32             87736320       0.0%    100.0%      0.0%
 flops    28 x    28 x    63            101154816       0.0%    100.0%      0.0%
 flops    28 x    32 x    63            115605504       0.0%    100.0%      0.0%
 flops    32 x    28 x    63            115605504       0.0%    100.0%      0.0%
 flops    32 x    32 x    63            132120576       0.0%    100.0%      0.0%
 flops    17 x    17 x    28            160221600       0.0%    100.0%      0.0%
 flops    17 x    17 x    32            183110400       0.0%    100.0%      0.0%
 flops    17 x    28 x    63            187604928       0.0%    100.0%      0.0%
 flops    17 x    32 x    63            214405632       0.0%    100.0%      0.0%
 flops     6 x     6 x    17            285769728       0.0%    100.0%      0.0%
 flops     6 x    17 x     6            286239744       0.0%    100.0%      0.0%
 flops    17 x     6 x     6            286239744       0.0%    100.0%      0.0%
 flops     6 x    28 x     6            379330560       0.0%    100.0%      0.0%
 flops     6 x    32 x     6            447676416       0.0%    100.0%      0.0%
 flops    46 x    28 x    63            507636864       0.0%    100.0%      0.0%
 flops    46 x    32 x    63            580156416       0.0%    100.0%      0.0%
 flops    17 x    17 x     6           1214521344       0.0%    100.0%      0.0%
 flops    17 x     6 x    17           1215873864       0.0%    100.0%      0.0%
 flops     6 x    17 x    17           1215873864       0.0%    100.0%      0.0%
 flops     6 x    28 x    17           1612154880       0.0%    100.0%      0.0%
 flops    17 x    28 x     6           1612154880       0.0%    100.0%      0.0%
 flops    23 x    28 x    63           1776729024       0.0%    100.0%      0.0%
 flops     6 x    32 x    17           1902624768       0.0%    100.0%      0.0%
 flops    17 x    32 x     6           1902624768       0.0%    100.0%      0.0%
 flops    23 x    32 x    63           2030547456       0.0%    100.0%      0.0%
 flops    40 x    28 x    63           3089963520       0.0%    100.0%      0.0%
 flops    40 x    32 x    63           3531386880       0.0%    100.0%      0.0%
 flops    17 x    17 x    17           5180247548       0.0%    100.0%      0.0%
 flops    17 x    28 x    17           6851658240       0.0%    100.0%      0.0%
 flops    17 x    32 x    17           8086155264       0.0%    100.0%      0.0%
 flops inhomo. stacks                           0       0.0%      0.0%      0.0%
 flops total                        46.090812E+09       0.0%    100.0%      0.0%
 flops max/rank                      2.646343E+09       0.0%    100.0%      0.0%
 matmuls inhomo. stacks                         0       0.0%      0.0%      0.0%
 matmuls total                            4996347       0.0%    100.0%      0.0%
 number of processed stacks               1183469       0.0%    100.0%      0.0%
 average stack size                                     0.0       4.2       0.0
 marketing flops                    47.350522E+09
 -------------------------------------------------------------------------------
 # multiplications                           1670
 max memory usage/rank             374.505472E+06
 # max total images/rank                        1
 # max 3D layers                                1
 # MPI messages exchanged                 1496320
 MPI messages size (bytes):
  total size                        20.000563E+09
  min size                           0.000000E+00
  max size                          32.256000E+03
  average size                      13.366501E+03
 MPI breakdown and total messages size (bytes):
             size <=      128              760872                        0
       128 < size <=     8192               14504                104466432
      8192 < size <=    32768              720944              19898258688
     32768 < size <=   131072                   0                        0
    131072 < size <=  4194304                   0                        0
   4194304 < size <= 16777216                   0                        0
  16777216 < size                               0                        0
 -------------------------------------------------------------------------------
 -                                                                             -
 -                      DBCSR MESSAGE PASSING PERFORMANCE                      -
 -                                                                             -
 -------------------------------------------------------------------------------
 ROUTINE             CALLS      AVE VOLUME [Bytes]
 MP_Bcast               63                     12.
 MP_Allreduce         7390                      9.
 MP_Alltoall         26496                  14176.
 MP_ISend            53424                   8342.
 MP_IRecv            53424                   8195.
 -------------------------------------------------------------------------------

 -------------------------------------------------------------------------------
 -                                                                             -
 -                                DBM STATISTICS                               -
 -                                                                             -
 -------------------------------------------------------------------------------
    M  x    N  x    K                                          COUNT     PERCENT
 -------------------------------------------------------------------------------

 -------------------------------------------------------------------------------
 -                                                                             -
 -                                GRID STATISTICS                              -
 -                                                                             -
 -------------------------------------------------------------------------------
 LP    KERNEL             BACKEND                              COUNT     PERCENT
 3     collocate general  CPU                               13248064      24.04%
 3     integrate general  CPU                               13000302      23.59%
 4     integrate general  CPU                                9119391      16.55%
 4     collocate general  CPU                                8986208      16.30%
 2     collocate general  CPU                                5319680       9.65%
 2     integrate general  CPU                                5153440       9.35%
 5     integrate general  CPU                                 280819       0.51%
 0     collocate general  CPU                                   5120       0.01%
 0     integrate general  CPU                                   2560       0.00%
 1     integrate general  CPU                                   2560       0.00%
 -------------------------------------------------------------------------------

 MEMORY| Estimated peak process memory [MiB]                                 358

 -------------------------------------------------------------------------------
 ----                             MULTIGRID INFO                            ----
 -------------------------------------------------------------------------------
 count for grid        1:        1372448          cutoff [a.u.]          400.00
 count for grid        2:        1332134          cutoff [a.u.]          133.33
 count for grid        3:         978459          cutoff [a.u.]           44.44
 count for grid        4:        1274546          cutoff [a.u.]           14.81
 total gridlevel count  :        4957587

 -------------------------------------------------------------------------------
 -                                                                             -
 -                         MESSAGE PASSING PERFORMANCE                         -
 -                                                                             -
 -------------------------------------------------------------------------------

 ROUTINE             CALLS      AVE VOLUME [Bytes]
 MP_Group                5
 MP_Bcast             1316                 428462.
 MP_Allreduce        15946                    118.
 MP_Sync               201
 MP_Alltoall          1007                2716287.
 MP_SendRecv          6300                  29561.
 MP_ISendRecv         6048                  30763.
 MP_Wait             17556
 MP_comm_split         196
 MP_ISend             4928                 109832.
 MP_IRecv            10208                  53028.
 -------------------------------------------------------------------------------


 -------------------------------------------------------------------------------
 -                                                                             -
 -                           R E F E R E N C E S                               -
 -                                                                             -
 -------------------------------------------------------------------------------
 
 CP2K version 2024.1 (Development Version), the CP2K developers group (2024).
 CP2K is freely available from https://www.cp2k.org/ .

 Kuehne,Thomas D.; Iannuzzi,Marcella; Del Ben,Mauro;
 Rybkin,Vladimir V.; Seewald,Patrick; Stein,Frederick; Laino,Teodoro;
 Khaliullin,Rustam Z.; Schuett,Ole; Schiffmann,Florian; Golze,Dorothea;
 Wilhelm,Jan; Chulkov,Sergey; Bani-Hashemian,Mohammad Hossein;
 Weber,Valery; Borstnik,Urban; Taillefumier,Mathieu;
 Jakobovits,Alice Shoshana; Lazzaro,Alfio; Pabst,Hans; Mueller,Tiziano;
 Schade,Robert; Guidon,Manuel; Andermatt,Samuel; Holmberg,Nico;
 Schenter,Gregory K.; Hehn,Anna; Bussy,Augustin; Belleflamme,Fabian;
 Tabacchi,Gloria; Gloess,Andreas; Lass,Michael; Bethune,Iain;
 Mundy,Christopher J.; Plessl,Christian; Watkins,Matt;
 VandeVondele,Joost; Krack,Matthias; Hutter,Juerg. 
 The Journal of Chemical Physics, 152 (19), (2020). 
 CP2K: An electronic structure and molecular dynamics software package -
 Quickstep: Efficient and accurate electronic structure calculations.
 https://doi.org/10.1063/5.0007045

 Goerigk, Lars; Hansen, Andreas; Bauer, Christoph; Ehrlich, Stephan;
 Najibi, Asim; Grimme, Stefan. , 19 (48), (2017). 
 A look at the density functional theory zoo with the advanced GMTKN55 database
 for general main group thermochemistry, kinetics and noncovalent interactions.
 https://doi.org/10.1039/C7CP04913G

 Grimme, S; Bannwarth, C. 
 The Journal of Chemical Physics, 145, 054103 (2016). 
 Ultra-fast computation of electronic spectra for large systems
 by tight-binding based simplified Tamm-Dancoff approximation (sTDA-xTB).
 https://doi.org/10.1063/1.4959605

 Schuett, Ole; Messmer, Peter; Hutter, Juerg; VandeVondele, Joost. 
 Electronic Structure Calculations on Graphics Processing Units, John
 Wiley & Sons, Ltd, 173-190 (2016). 
 GPU-Accelerated Sparse Matrix-Matrix Multiplication for
 Linear Scaling Density Functional Theory.
 https://doi.org/10.1002/9781118670712.ch8

 Heinecke, A; Henry, G; Hutchinson, M; Pabst, H. 
 Proceedings of Intl. Supercomputing Conference, 981-991 (2016). 
 LIBXSMM: Accelerating Small Matrix Multiplications
 by Runtime Code Generation.
 https://doi.org/10.1109/SC.2016.83

 Borstnik, U; VandeVondele, J; Weber, V; Hutter, J. 
 PARALLEL COMPUTING, 40 (5-6), 47-58 (2014). 
 Sparse matrix multiplication: The distributed block-compressed sparse
 row library.
 https://doi.org/10.1016/j.parco.2014.03.012

 Hutter, J; Iannuzzi, M; Schiffmann, F; VandeVondele, J. 
 WIREs Comput Mol Sci., 4 (1), 15-25 (2014). 
 CP2K: atomistic simulations of condensed matter systems.
 https://doi.org/10.1002/wcms.1159

 Grimme, S. The Journal of Chemical Physics, 138, 244104 (2013). 
 A simplified Tamm-Dancoff density functional approach for
 the electronic excitation spectra of very large molecules.
 https://doi.org/10.1063/1.4811331

 Grimme, S; Ehrlich, S; Goerigk, L. 
 JOURNAL OF COMPUTATIONAL CHEMISTRY, 32, 1456 (2011). 
 Effect of the damping function in dispersion corrected density functional theory.
 https://doi.org/10.1002/jcc.21759

 Grimme, S; Antony, J; Ehrlich, S; Krieg, H. 
 JOURNAL OF CHEMICAL PHYSICS, 132 (15), 154104 (2010). 
 A consistent and accurate ab initio parametrization of density
 functional dispersion correction (DFT-D) for the 94 elements H-Pu.
 https://doi.org/10.1063/1.3382344

 VandeVondele, J; Hutter, J. 
 JOURNAL OF CHEMICAL PHYSICS, 127 (11), 114105 (2007). 
 Gaussian basis sets for accurate calculations on molecular systems in
 gas and condensed phases.
 https://doi.org/10.1063/1.2770708

 Krack, M. 
 THEORETICAL CHEMISTRY ACCOUNTS, 114 (1-3), 145-152 (2005). 
 Pseudopotentials for H to Kr optimized for gradient-corrected
 exchange-correlation functionals.
 https://doi.org/10.1007/s00214-005-0655-y

 VandeVondele, J; Krack, M; Mohamed, F; Parrinello, M; Chassaing, T;
 Hutter, J. COMPUTER PHYSICS COMMUNICATIONS, 167 (2), 103-128 (2005). 
 QUICKSTEP: Fast and accurate density functional calculations using a
 mixed Gaussian and plane waves approach.
 https://doi.org/10.1016/j.cpc.2004.12.014

 Frigo, M; Johnson, SG. 
 PROCEEDINGS OF THE IEEE, 93 (2), 216-231 (2005). 
 The design and implementation of FFTW3.
 https://doi.org/10.1109/JPROC.2004.840301

 Iannuzzi, M; Chassaing, T; Wallman, T; Hutter, J. 
 CHIMIA, 59 (7-8), 499-503 (2005). 
 Ground and excited state density functional calculations with the
 Gaussian and augmented-plane-wave method.
 https://doi.org/10.2533/000942905777676164

 VandeVondele, J; Hutter, J. 
 JOURNAL OF CHEMICAL PHYSICS, 118 (10), 4365-4369 (2003). 
 An efficient orbital transformation method for electronic structure
 calculations.
 https://doi.org/10.1063/1.1543154

 Martin,Richard L.. 
 The Journal of Chemical Physics, 118 (11), 4775-4777 (2003). 
 Natural transition orbitals.
 https://doi.org/10.1063/1.1558471

 Hartwigsen, C; Goedecker, S; Hutter, J. 
 PHYSICAL REVIEW B, 58 (7), 3641-3662 (1998). 
 Relativistic separable dual-space Gaussian pseudopotentials from H to Rn.
 https://doi.org/10.1103/PhysRevB.58.3641

 Lippert, G; Hutter, J; Parrinello, M. 
 MOLECULAR PHYSICS, 92 (3), 477-487 (1997). 
 A hybrid Gaussian and plane wave density functional scheme.
 https://doi.org/10.1080/002689797170220

 Perdew, JP; Burke, K; Ernzerhof, M. 
 PHYSICAL REVIEW LETTERS, 77 (18), 3865-3868 (1996). 
 Generalized gradient approximation made simple.
 https://doi.org/10.1103/PhysRevLett.77.3865

 Goedecker, S; Teter, M; Hutter, J. 
 PHYSICAL REVIEW B, 54 (3), 1703-1710 (1996). 
 Separable dual-space Gaussian pseudopotentials.
 https://doi.org/10.1103/PhysRevB.54.1703


 -------------------------------------------------------------------------------
 -                                                                             -
 -                                T I M I N G                                  -
 -                                                                             -
 -------------------------------------------------------------------------------
 SUBROUTINE                       CALLS  ASD         SELF TIME        TOTAL TIME
                                MAXIMUM       AVERAGE  MAXIMUM  AVERAGE  MAXIMUM
 CP2K                                 1  1.0    0.007    0.026  270.251  270.253
 qs_forces                            1  2.0    0.001    0.001  269.368  269.368
 qs_energies                          1  3.0    0.001    0.001  260.603  262.401
 scf_env_do_scf                       1  4.0    0.000    0.000  243.322  243.322
 scf_env_do_scf_inner_loop           31  5.0    0.001    0.029  225.855  225.860
 rebuild_ks_matrix                   32  6.9    0.000    0.000  134.849  134.852
 qs_ks_build_kohn_sham_matrix        32  7.9    0.004    0.004  134.849  134.852
 sum_up_and_integrate                32  8.9    0.000    0.000  133.774  133.781
 integrate_v_rspace                  32  9.9    0.001    0.001  133.770  133.778
 grid_integrate_task_list            32 10.9  126.931  132.838  126.931  132.838
 qs_ks_update_qs_env                 35  6.0    0.000    0.000  130.038  130.041
 qs_rho_update_rho_low               32  6.0    0.000    0.000  115.479  115.481
 calculate_rho_elec                  32  7.0    0.009    0.009  115.479  115.481
 grid_collocate_task_list            32  8.0  110.114  114.433  110.114  114.433
 init_scf_loop                        4  5.0    0.000    0.000   17.463   17.464
 qs_energies_properties               1  4.0    0.000    0.000   11.278   13.076
 tddfpt                               1  5.0    0.001    0.001   11.278   13.076
 tddfpt_energies                      1  6.0    0.001    0.001   10.840   12.637
 mp_alltoall_d11v                 10949 12.9    6.825   11.420    6.825   11.420
 rs_gather_matrices                  32 10.9    0.003    0.011    6.261   10.863
 transfer_rs2pw                     290 10.6    0.002    0.002    5.626    8.849
 density_rs2pw                       32  8.0    0.001    0.001    5.330    8.705
 mp_waitany                        4928 13.6    5.354    8.619    5.354    8.619
 transfer_rs2pw_400                  34  9.9    0.068    0.083    5.303    8.583
 tddfpt_print_nto_analysis            1  7.0    0.008    0.012    5.537    7.335
 -------------------------------------------------------------------------------

 The number of warnings for this run is : 1
 
 -------------------------------------------------------------------------------
  **** **** ******  **  PROGRAM ENDED AT                 2024-10-24 08:33:13.587
 ***** ** ***  *** **   PROGRAM RAN ON                               nesh-clk405
 **    ****   ******    PROGRAM RAN BY                                  suphc356
 ***** **    ** ** **   PROGRAM PROCESS ID                               3405701
  **** **  *******  **  PROGRAM STOPPED IN /gxfs_work/cau/suphc356/NEWTONX_proje
                                           ct/Pyrazin_crystal/plain_pyrazine/CP2
                                           K_GPW_PBE_MOLOPT_TZVP/IC_TDDFT_AGAIN_
                                           STDA/JOB_AD
