 DBCSR| CPU Multiplication driver                                           XSMM (U)
 DBCSR| Multrec recursion limit                                              512 (U)
 DBCSR| Multiplication stack size                                           1000 (D)
 DBCSR| Maximum elements for images                                    UNLIMITED (U)
 DBCSR| Multiplicative factor virtual images                                   1 (U)
 DBCSR| Use multiplication densification                                       T (D)
 DBCSR| Multiplication size stacks                                             3 (U)
 DBCSR| Use memory pool for CPU allocation                                     F (U)
 DBCSR| Number of 3D layers                                               SINGLE (U)
 DBCSR| Use MPI memory allocation                                              F (U)
 DBCSR| Use RMA algorithm                                                      F (U)
 DBCSR| Use Communication thread                                               T (U)
 DBCSR| Communication thread load                                             87 (D)
 DBCSR| MPI: My process id                                                     0
 DBCSR| MPI: Number of processes                                              16
 DBCSR| OMP: Current number of threads                                         1
 DBCSR| OMP: Max number of threads                                             1
 DBCSR| Split modifier for TAS multiplication algorithm                  1.0E+00 (U)


  **** **** ******  **  PROGRAM STARTED AT               2025-01-07 12:56:08.597
 ***** ** ***  *** **   PROGRAM STARTED ON                           nesh-clk589
 **    ****   ******    PROGRAM STARTED BY                              suphc356
 ***** **    ** ** **   PROGRAM PROCESS ID                                 17523
  **** **  *******  **  PROGRAM STARTED IN /gxfs_work/cau/suphc356/NEWTONX_proje
                                           ct/Pyrazin_molecule/CP2K_GAPW_B3LYP_d
                                           ef2_TZVP/MOLDYN_BA_again/TRAJECTORIES
                                           /TRAJ118/TEMP

 CP2K| version string:                 CP2K version 2024.1 (Development Version)
 CP2K| source code revision number:                                  git:990486a
 CP2K| cp2kflags: omp libint fftw3 libxc libgrpp parallel mpi_f08 scalapack cosm
 CP2K|            a xsmm spglib mkl
 CP2K| is freely available from                            https://www.cp2k.org/
 CP2K| Program compiled at                          Mon Mar 11 08:48:45 CET 2024
 CP2K| Program compiled on                                           nesh-login2
 CP2K| Program compiled for                                                local
 CP2K| Data directory path                 /gxfs_work/cau/suphc356/cp2k_gcc/data
 CP2K| Input file name                                                  cp2k.inp

 GLOBAL| Force Environment number                                              1
 GLOBAL| Basis set file name                                     EMSL_BASIS_SETS
 GLOBAL| Potential file name                                      ALL_POTENTIALS
 GLOBAL| MM Potential file name                                     MM_POTENTIAL
 GLOBAL| Coordinate file name                                      __STD_INPUT__
 GLOBAL| Method name                                                        CP2K
 GLOBAL| Project name                                               testsuite_ad
 GLOBAL| Run type                                                   ENERGY_FORCE
 GLOBAL| FFT library                                                       FFTW3
 GLOBAL| Diagonalization library                                       ScaLAPACK
 GLOBAL| DGEMM library                                                      BLAS
 GLOBAL| Orthonormality check for eigenvectors                          DISABLED
 GLOBAL| Matrix multiplication library                                     COSMA
 GLOBAL| All-to-all communication in single precision                          F
 GLOBAL| FFTs using library dependent lengths                                  F
 GLOBAL| Grid backend                                                       AUTO
 GLOBAL| Global print level                                               MEDIUM
 GLOBAL| MPI I/O enabled                                                       T
 GLOBAL| Total number of message passing processes                            16
 GLOBAL| Number of threads for this process                                    1
 GLOBAL| This output is from process                                           0
 GLOBAL| Stack size for threads created by OpenMP (OMP_STACKSIZE)           256M
 GLOBAL| CPU model name                Intel(R) Xeon(R) Gold 6226R CPU @ 2.90GHz
 GLOBAL| CPUID                                                              1003
 GLOBAL| Compiled for CPUID                                                    0

 *** HINT in environment.F:920 :: The compiler target flags (generic) used ***
 *** to build this binary cannot exploit all extensions of this CPU model  ***
 *** (x86_avx512). Consider compiler target flags as part of FCFLAGS and   ***
 *** CFLAGS (ARCH file).                                                   ***


 MEMORY| system memory details [Kb]
 MEMORY|                        rank 0           min           max       average
 MEMORY| MemTotal            196680868     196680868     196680868     196680868
 MEMORY| MemFree             172223524     172223524     172223524     172223524
 MEMORY| Buffers               1207540       1207540       1207540       1207540
 MEMORY| Cached                 986740        986740        986740        986740
 MEMORY| Slab                  7722032       7722032       7722032       7722032
 MEMORY| SReclaimable           312064        312064        312064        312064
 MEMORY| MemLikelyFree       174729868     174729868     174729868     174729868


 *** Fundamental physical constants (SI units) ***

 *** Literature: B. J. Mohr and B. N. Taylor,
 ***             CODATA recommended values of the fundamental physical
 ***             constants: 2006, Web Version 5.1
 ***             http://physics.nist.gov/constants

 Speed of light in vacuum [m/s]                             2.99792458000000E+08
 Magnetic constant or permeability of vacuum [N/A**2]       1.25663706143592E-06
 Electric constant or permittivity of vacuum [F/m]          8.85418781762039E-12
 Planck constant (h) [J*s]                                  6.62606896000000E-34
 Planck constant (h-bar) [J*s]                              1.05457162825177E-34
 Elementary charge [C]                                      1.60217648700000E-19
 Electron mass [kg]                                         9.10938215000000E-31
 Electron g factor [ ]                                     -2.00231930436220E+00
 Proton mass [kg]                                           1.67262163700000E-27
 Fine-structure constant                                    7.29735253760000E-03
 Rydberg constant [1/m]                                     1.09737315685270E+07
 Avogadro constant [1/mol]                                  6.02214179000000E+23
 Boltzmann constant [J/K]                                   1.38065040000000E-23
 Atomic mass unit [kg]                                      1.66053878200000E-27
 Bohr radius [m]                                            5.29177208590000E-11

 *** Conversion factors ***

 [u] -> [a.u.]                                              1.82288848426455E+03
 [Angstrom] -> [Bohr] = [a.u.]                              1.88972613288564E+00
 [a.u.] = [Bohr] -> [Angstrom]                              5.29177208590000E-01
 [a.u.] -> [s]                                              2.41888432650478E-17
 [a.u.] -> [fs]                                             2.41888432650478E-02
 [a.u.] -> [J]                                              4.35974393937059E-18
 [a.u.] -> [N]                                              8.23872205491840E-08
 [a.u.] -> [K]                                              3.15774647902944E+05
 [a.u.] -> [kJ/mol]                                         2.62549961709828E+03
 [a.u.] -> [kcal/mol]                                       6.27509468713739E+02
 [a.u.] -> [Pa]                                             2.94210107994716E+13
 [a.u.] -> [bar]                                            2.94210107994716E+08
 [a.u.] -> [atm]                                            2.90362800883016E+08
 [a.u.] -> [eV]                                             2.72113838565563E+01
 [a.u.] -> [Hz]                                             6.57968392072181E+15
 [a.u.] -> [1/cm] (wave numbers)                            2.19474631370540E+05
 [a.u./Bohr**2] -> [1/cm]                                   5.14048714338585E+03
 

 CELL_TOP| Volume [angstrom^3]:                                      2744.000000
 CELL_TOP| Vector a [angstrom    14.000     0.000     0.000   |a| =    14.000000
 CELL_TOP| Vector b [angstrom     0.000    14.000     0.000   |b| =    14.000000
 CELL_TOP| Vector c [angstrom     0.000     0.000    14.000   |c| =    14.000000
 CELL_TOP| Angle (b,c), alpha [degree]:                                90.000000
 CELL_TOP| Angle (a,c), beta  [degree]:                                90.000000
 CELL_TOP| Angle (a,b), gamma [degree]:                                90.000000
 CELL_TOP| Numerically orthorhombic:                                         YES
 CELL_TOP| Periodicity                                                      NONE

 CELL| Volume [angstrom^3]:                                          2744.000000
 CELL| Vector a [angstrom]:      14.000     0.000     0.000   |a| =    14.000000
 CELL| Vector b [angstrom]:       0.000    14.000     0.000   |b| =    14.000000
 CELL| Vector c [angstrom]:       0.000     0.000    14.000   |c| =    14.000000
 CELL| Angle (b,c), alpha [degree]:                                    90.000000
 CELL| Angle (a,c), beta  [degree]:                                    90.000000
 CELL| Angle (a,b), gamma [degree]:                                    90.000000
 CELL| Numerically orthorhombic:                                             YES
 CELL| Periodicity                                                          NONE

 CELL_REF| Volume [angstrom^3]:                                      2744.000000
 CELL_REF| Vector a [angstrom    14.000     0.000     0.000   |a| =    14.000000
 CELL_REF| Vector b [angstrom     0.000    14.000     0.000   |b| =    14.000000
 CELL_REF| Vector c [angstrom     0.000     0.000    14.000   |c| =    14.000000
 CELL_REF| Angle (b,c), alpha [degree]:                                90.000000
 CELL_REF| Angle (a,c), beta  [degree]:                                90.000000
 CELL_REF| Angle (a,b), gamma [degree]:                                90.000000
 CELL_REF| Numerically orthorhombic:                                         YES
 CELL_REF| Periodicity                                                      NONE

 *******************************************************************************
 *******************************************************************************
 **                                                                           **
 **     #####                         ##              ##                      **
 **    ##   ##            ##          ##              ##                      **
 **   ##     ##                       ##            ######                    **
 **   ##     ##  ##   ##  ##   #####  ##  ##   ####   ##    #####    #####    **
 **   ##     ##  ##   ##  ##  ##      ## ##   ##      ##   ##   ##  ##   ##   **
 **   ##  ## ##  ##   ##  ##  ##      ####     ###    ##   ######   ######    **
 **    ##  ###   ##   ##  ##  ##      ## ##      ##   ##   ##       ##        **
 **     #######   #####   ##   #####  ##  ##  ####    ##    #####   ##        **
 **           ##                                                    ##        **
 **                                                                           **
 **                                                ... make the atoms dance   **
 **                                                                           **
 **            Copyright (C) by CP2K developers group (2000-2024)             **
 **                      J. Chem. Phys. 152, 194103 (2020)                    **
 **                                                                           **
 *******************************************************************************

 DFT| Spin restricted Kohn-Sham (RKS) calculation                            RKS
 DFT| Multiplicity                                                             1
 DFT| Number of spin states                                                    1
 DFT| Charge                                                                   0
 DFT| Self-interaction correction (SIC)                                       NO
 DFT| Cutoffs: density                                              1.000000E-10
 DFT|          gradient                                             1.000000E-10
 DFT|          tau                                                  1.000000E-10
 DFT|          cutoff_smoothing_range                               0.000000E+00
 DFT| XC density smoothing                                                  NONE
 DFT| XC derivatives                                                          PW

 FUNCTIONAL| BECKE88:
 FUNCTIONAL| A. Becke, Phys. Rev. A 38, 3098 (1988) {LDA version}               
 FUNCTIONAL| LYP:
 FUNCTIONAL| C. Lee, W. Yang, R.G. Parr, Phys. Rev. B, 37, 785 (1988) {LDA versi
 FUNCTIONAL| on}                                                                
 FUNCTIONAL| VWN:
 FUNCTIONAL| S. H. Vosko, L. Wilk and M. Nusair, Can. J. Phys. 58, 1200 (1980) {
 FUNCTIONAL| LDA version}                                                       
 FUNCTIONAL| XALPHA:
 FUNCTIONAL| Dirac/Slater local exchange; parameter=  0.666 {LDA}               

 vdW POTENTIAL|                                                   Pair Potential
 vdW POTENTIAL|          DFT-D3 (Version 3.1)
 vdW POTENTIAL|          Potential Form: S. Grimme et al, JCP 132: 154104 (2010)
 vdW POTENTIAL|          Zero Damping
 vdW POTENTIAL|          Cutoff Radius [Bohr]:                             37.79
 vdW POTENTIAL|          s6 Scaling Factor:                               1.0000
 vdW POTENTIAL|          sr6 Scaling Factor:                              1.2610
 vdW POTENTIAL|          s8 Scaling Factor:                               1.7030
 vdW POTENTIAL|          Cutoff for CN calculation:                   0.1000E-05

 QS| Method:                                                                GAPW
 QS| Density plane wave grid type                        NON-SPHERICAL FULLSPACE
 QS| Number of grid levels:                                                    4
 QS| Density cutoff [a.u.]:                                                200.0
 QS| Multi grid cutoff [a.u.]: 1) grid level                               200.0
 QS|                           2) grid level                                66.7
 QS|                           3) grid level                                22.2
 QS|                           4) grid level                                 7.4
 QS| Grid level progression factor:                                          3.0
 QS| Relative density cutoff [a.u.]:                                        30.0
 QS| Interaction thresholds: eps_pgf_orb:                                1.0E-07
 QS|                         eps_filter_matrix:                          0.0E+00
 QS|                         eps_core_charge:                            1.0E-16
 QS|                         eps_rho_gspace:                             1.0E-14
 QS|                         eps_rho_rspace:                             1.0E-14
 QS|                         eps_gvg_rspace:                             1.0E-07
 QS|                         eps_ppl:                                    1.0E-02
 QS|                         eps_ppnl:                                   1.0E-09
 QS| GAPW|      One center basis extended with primitives (small:s)
 QS| GAPW|                   eps_fit:                                    1.0E-04
 QS| GAPW|                   eps_iso:                                    1.0E-12
 QS| GAPW|                   eps_svd:                                    1.0E-08
 QS| GAPW|                   eps_cpc:                                    1.0E-14
 QS| GAPW|   atom-r-grid: quadrature:                                     GC_LOG
 QS| GAPW|      atom-s-grid:  max l :                                          6
 QS| GAPW|      max_l_rho0 :                                                   4


 ATOMIC KIND INFORMATION

  1. Atomic kind: n                                     Number of atoms:       2

     Orbital Basis Set                                        Ahlrichs-def2-TZVP

       Number of orbital shell sets:                                          11
       Number of orbital shells:                                              11
       Number of primitive Cartesian functions:                               20
       Number of Cartesian basis functions:                                   36
       Number of spherical basis functions:                                   31
       Norm type:                                                              2

       Normalised Cartesian orbitals:

                        Set   Shell   Orbital            Exponent    Coefficient

                          1       1    1s            19730.800647       0.695604
                                                      2957.895874       1.298610
                                                       673.221336       2.219088
                                                       190.682495       3.463661
                                                        62.295442       4.696756
                                                        22.654161       4.952251

                          2       1    1s                8.979148       2.388068
                                                         3.686300       0.733788

                          3       1    1s                0.846601       0.629027

                          4       1    1s                0.336471       0.314863

                          5       1    1s                0.136477       0.160031

                          6       1    1px              49.200381       2.126481
                                                        11.346791       2.327937
                                                         3.427397       2.048573
                                                         1.178553       1.260732
                          6       1    1py              49.200381       2.126481
                                                        11.346791       2.327937
                                                         3.427397       2.048573
                                                         1.178553       1.260732
                          6       1    1pz              49.200381       2.126481
                                                        11.346791       2.327937
                                                         3.427397       2.048573
                                                         1.178553       1.260732

                          7       1    1px               0.416422       0.476823
                          7       1    1py               0.416422       0.476823
                          7       1    1pz               0.416422       0.476823

                          8       1    1px               0.142608       0.124917
                          8       1    1py               0.142608       0.124917
                          8       1    1pz               0.142608       0.124917

                          9       1    1dx2              1.654000       3.970513
                          9       1    1dxy              1.654000       6.877130
                          9       1    1dxz              1.654000       6.877130
                          9       1    1dy2              1.654000       3.970513
                          9       1    1dyz              1.654000       6.877130
                          9       1    1dz2              1.654000       3.970513

                         10       1    1dx2              0.469000       0.437484
                         10       1    1dxy              0.469000       0.757744
                         10       1    1dxz              0.469000       0.757744
                         10       1    1dy2              0.469000       0.437484
                         10       1    1dyz              0.469000       0.757744
                         10       1    1dz2              0.469000       0.437484

                         11       1    1fx3              1.093000       1.798249
                         11       1    1fx2y             1.093000       4.021007
                         11       1    1fx2z             1.093000       4.021007
                         11       1    1fxy2             1.093000       4.021007
                         11       1    1fxyz             1.093000       6.964588
                         11       1    1fxz2             1.093000       4.021007
                         11       1    1fy3              1.093000       1.798249
                         11       1    1fy2z             1.093000       4.021007
                         11       1    1fyz2             1.093000       4.021007
                         11       1    1fz3              1.093000       1.798249

       Atomic covalent radius [Angstrom]:                                  0.750

       Atomic van der Waals radius [Angstrom]:                             1.550

     The atoms of this atomic kind are PAW atoms (GAPW):
       Hard Gaussian function radius:                                      1.400
       Rho0 radius:                                                        1.400
       Maximum GTO radius used for PAW projector construction:            24.566

     GAPW Soft Basis Set                                 Ahlrichs-def2-TZVP_soft

       Number of orbital shell sets:                                          11
       Number of orbital shells:                                              11
       Number of primitive Cartesian functions:                               11
       Number of Cartesian basis functions:                                   36
       Number of spherical basis functions:                                   31
       Norm type:                                                              2

       Normalised Cartesian orbitals:

                        Set   Shell   Orbital            Exponent    Coefficient

                          1       1    1s         

                          2       1    1s                3.686300       0.733788

                          3       1    1s                0.846601       0.629027

                          4       1    1s                0.336471       0.314863

                          5       1    1s                0.136477       0.160031

                          6       1    1px               3.427397       2.048573
                                                         1.178553       1.260732
                          6       1    1py               3.427397       2.048573
                                                         1.178553       1.260732
                          6       1    1pz               3.427397       2.048573
                                                         1.178553       1.260732

                          7       1    1px               0.416422       0.476823
                          7       1    1py               0.416422       0.476823
                          7       1    1pz               0.416422       0.476823

                          8       1    1px               0.142608       0.124917
                          8       1    1py               0.142608       0.124917
                          8       1    1pz               0.142608       0.124917

                          9       1    1dx2              1.654000       3.970513
                          9       1    1dxy              1.654000       6.877130
                          9       1    1dxz              1.654000       6.877130
                          9       1    1dy2              1.654000       3.970513
                          9       1    1dyz              1.654000       6.877130
                          9       1    1dz2              1.654000       3.970513

                         10       1    1dx2              0.469000       0.437484
                         10       1    1dxy              0.469000       0.757744
                         10       1    1dxz              0.469000       0.757744
                         10       1    1dy2              0.469000       0.437484
                         10       1    1dyz              0.469000       0.757744
                         10       1    1dz2              0.469000       0.437484

                         11       1    1fx3              1.093000       1.798249
                         11       1    1fx2y             1.093000       4.021007
                         11       1    1fx2z             1.093000       4.021007
                         11       1    1fxy2             1.093000       4.021007
                         11       1    1fxyz             1.093000       6.964588
                         11       1    1fxz2             1.093000       4.021007
                         11       1    1fy3              1.093000       1.798249
                         11       1    1fy2z             1.093000       4.021007
                         11       1    1fyz2             1.093000       4.021007
                         11       1    1fz3              1.093000       1.798249

     AE Potential information for                                            ALL

       Description:                                       All-electron potential
                                          Krack, Parrinello, PCCP 2, 2105 (2000)

       Gaussian exponent of the core charge distribution:               5.979100
       Electronic configuration (s p d ...):                           4   3   0

  2. Atomic kind: c                                     Number of atoms:       4

     Orbital Basis Set                                        Ahlrichs-def2-TZVP

       Number of orbital shell sets:                                          11
       Number of orbital shells:                                              11
       Number of primitive Cartesian functions:                               20
       Number of Cartesian basis functions:                                   36
       Number of spherical basis functions:                                   31
       Norm type:                                                              2

       Normalised Cartesian orbitals:

                        Set   Shell   Orbital            Exponent    Coefficient

                          1       1    1s            13575.349682       0.543591
                                                      2035.233368       1.014554
                                                       463.225624       1.731573
                                                       131.200196       2.691038
                                                        42.853016       3.604455
                                                        15.584186       3.702556

                          2       1    1s                6.206714       1.838354
                                                         2.576490       0.544758

                          3       1    1s                0.576963       0.471815

                          4       1    1s                0.229728       0.236494

                          5       1    1s                0.095164       0.122114

                          6       1    1px              34.697232       1.359665
                                                         7.958262       1.451259
                                                         2.378083       1.270923
                                                         0.814332       0.802572
                          6       1    1py              34.697232       1.359665
                                                         7.958262       1.451259
                                                         2.378083       1.270923
                                                         0.814332       0.802572
                          6       1    1pz              34.697232       1.359665
                                                         7.958262       1.451259
                                                         2.378083       1.270923
                                                         0.814332       0.802572

                          7       1    1px               0.288875       0.301876
                          7       1    1py               0.288875       0.301876
                          7       1    1pz               0.288875       0.301876

                          8       1    1px               0.100568       0.080727
                          8       1    1py               0.100568       0.080727
                          8       1    1pz               0.100568       0.080727

                          9       1    1dx2              1.097000       1.935401
                          9       1    1dxy              1.097000       3.352214
                          9       1    1dxz              1.097000       3.352214
                          9       1    1dy2              1.097000       1.935401
                          9       1    1dyz              1.097000       3.352214
                          9       1    1dz2              1.097000       1.935401

                         10       1    1dx2              0.318000       0.221644
                         10       1    1dxy              0.318000       0.383899
                         10       1    1dxz              0.318000       0.383899
                         10       1    1dy2              0.318000       0.221644
                         10       1    1dyz              0.318000       0.383899
                         10       1    1dz2              0.318000       0.221644

                         11       1    1fx3              0.761000       0.796288
                         11       1    1fx2y             0.761000       1.780553
                         11       1    1fx2z             0.761000       1.780553
                         11       1    1fxy2             0.761000       1.780553
                         11       1    1fxyz             0.761000       3.084008
                         11       1    1fxz2             0.761000       1.780553
                         11       1    1fy3              0.761000       0.796288
                         11       1    1fy2z             0.761000       1.780553
                         11       1    1fyz2             0.761000       1.780553
                         11       1    1fz3              0.761000       0.796288

       Atomic covalent radius [Angstrom]:                                  0.770

       Atomic van der Waals radius [Angstrom]:                             1.700

     The atoms of this atomic kind are PAW atoms (GAPW):
       Hard Gaussian function radius:                                      1.520
       Rho0 radius:                                                        1.520
       Maximum GTO radius used for PAW projector construction:            24.566

     GAPW Soft Basis Set                                 Ahlrichs-def2-TZVP_soft

       Number of orbital shell sets:                                          11
       Number of orbital shells:                                              11
       Number of primitive Cartesian functions:                               11
       Number of Cartesian basis functions:                                   36
       Number of spherical basis functions:                                   31
       Norm type:                                                              2

       Normalised Cartesian orbitals:

                        Set   Shell   Orbital            Exponent    Coefficient

                          1       1    1s         

                          2       1    1s                2.576490       0.544758

                          3       1    1s                0.576963       0.471815

                          4       1    1s                0.229728       0.236494

                          5       1    1s                0.095164       0.122114

                          6       1    1px               2.378083       1.270923
                                                         0.814332       0.802572
                          6       1    1py               2.378083       1.270923
                                                         0.814332       0.802572
                          6       1    1pz               2.378083       1.270923
                                                         0.814332       0.802572

                          7       1    1px               0.288875       0.301876
                          7       1    1py               0.288875       0.301876
                          7       1    1pz               0.288875       0.301876

                          8       1    1px               0.100568       0.080727
                          8       1    1py               0.100568       0.080727
                          8       1    1pz               0.100568       0.080727

                          9       1    1dx2              1.097000       1.935401
                          9       1    1dxy              1.097000       3.352214
                          9       1    1dxz              1.097000       3.352214
                          9       1    1dy2              1.097000       1.935401
                          9       1    1dyz              1.097000       3.352214
                          9       1    1dz2              1.097000       1.935401

                         10       1    1dx2              0.318000       0.221644
                         10       1    1dxy              0.318000       0.383899
                         10       1    1dxz              0.318000       0.383899
                         10       1    1dy2              0.318000       0.221644
                         10       1    1dyz              0.318000       0.383899
                         10       1    1dz2              0.318000       0.221644

                         11       1    1fx3              0.761000       0.796288
                         11       1    1fx2y             0.761000       1.780553
                         11       1    1fx2z             0.761000       1.780553
                         11       1    1fxy2             0.761000       1.780553
                         11       1    1fxyz             0.761000       3.084008
                         11       1    1fxz2             0.761000       1.780553
                         11       1    1fy3              0.761000       0.796288
                         11       1    1fy2z             0.761000       1.780553
                         11       1    1fyz2             0.761000       1.780553
                         11       1    1fz3              0.761000       0.796288

     AE Potential information for                                            ALL

       Description:                                       All-electron potential
                                          Krack, Parrinello, PCCP 2, 2105 (2000)

       Gaussian exponent of the core charge distribution:               4.109048
       Electronic configuration (s p d ...):                           4   2   0

  3. Atomic kind: h                                     Number of atoms:       4

     Orbital Basis Set                                        Ahlrichs-def2-TZVP

       Number of orbital shell sets:                                           4
       Number of orbital shells:                                               4
       Number of primitive Cartesian functions:                                6
       Number of Cartesian basis functions:                                    6
       Number of spherical basis functions:                                    6
       Norm type:                                                              2

       Normalised Cartesian orbitals:

                        Set   Shell   Orbital            Exponent    Coefficient

                          1       1    1s               34.061341       0.255630
                                                         5.123575       0.461360
                                                         1.164663       0.681121

                          2       1    1s                0.327230       0.308355

                          3       1    1s                0.103072       0.129648

                          4       1    1px               0.800000       1.078456
                          4       1    1py               0.800000       1.078456
                          4       1    1pz               0.800000       1.078456

       Atomic covalent radius [Angstrom]:                                  0.320

       Atomic van der Waals radius [Angstrom]:                             1.090

     The atoms of this atomic kind are PAW atoms (GAPW):
       Hard Gaussian function radius:                                      1.000
       Rho0 radius:                                                        1.000
       Maximum GTO radius used for PAW projector construction:            24.566

     GAPW Soft Basis Set                                 Ahlrichs-def2-TZVP_soft

       Number of orbital shell sets:                                           4
       Number of orbital shells:                                               4
       Number of primitive Cartesian functions:                                5
       Number of Cartesian basis functions:                                    6
       Number of spherical basis functions:                                    6
       Norm type:                                                              2

       Normalised Cartesian orbitals:

                        Set   Shell   Orbital            Exponent    Coefficient

                          1       1    1s                5.123575       0.461360
                                                         1.164663       0.681121

                          2       1    1s                0.327230       0.308355

                          3       1    1s                0.103072       0.129648

                          4       1    1px               0.800000       1.078456
                          4       1    1py               0.800000       1.078456
                          4       1    1pz               0.800000       1.078456

     AE Potential information for                                            ALL

       Description:                                       All-electron potential
                                          Krack, Parrinello, PCCP 2, 2105 (2000)

       Gaussian exponent of the core charge distribution:              12.500000
       Electronic configuration (s p d ...):                           1   0   0


 MOLECULE KIND INFORMATION


 All atoms are their own molecule, skipping detailed information


 TOTAL NUMBERS AND MAXIMUM NUMBERS

  Total number of            - Atomic kinds:                                   3
                             - Atoms:                                         10
                             - Shell sets:                                    82
                             - Shells:                                        82
                             - Primitive Cartesian functions:                144
                             - Cartesian basis functions:                    240
                             - Spherical basis functions:                    210

  Maximum angular momentum of the orbital basis functions:                     3


 MODULE QUICKSTEP: ATOMIC COORDINATES IN ANGSTROM

   Atom Kind Element         X             Y             Z       Z(eff)     Mass
      1    1 n     7      7.234497      8.105327      7.536422   7.0000  14.0067
      2    1 n     7      7.201508      5.820010      6.176268   7.0000  14.0067
      3    2 c     6      7.182472      7.034678      8.221932   6.0000  12.0107
      4    2 c     6      7.018609      5.634049      7.725923   6.0000  12.0107
      5    2 c     6      7.366405      8.245304      6.216451   6.0000  12.0107
      6    2 c     6      7.038785      6.988570      5.489630   6.0000  12.0107
      7    3 h     1      7.370881      7.155282      9.352214   1.0000   1.0079
      8    3 h     1      7.503230      4.770236      7.956883   1.0000   1.0079
      9    3 h     1      6.883187      9.229764      5.771945   1.0000   1.0079
     10    3 h     1      6.496770      6.726848      4.647786   1.0000   1.0079



 SCF PARAMETERS         Density guess:                                   RESTART
                        --------------------------------------------------------
                        max_scf:                                              50
                        max_scf_history:                                       0
                        max_diis:                                              4
                        --------------------------------------------------------
                        eps_scf:                                        1.00E-08
                        eps_scf_history:                                0.00E+00
                        eps_diis:                                       1.00E-01
                        eps_eigval:                                     1.00E-05
                        --------------------------------------------------------
                        level_shift [a.u.]:                             0.000000
                        --------------------------------------------------------
                        Outer loop SCF in use 
                        No variables optimised in outer loop
                        eps_scf                                         1.00E-08
                        max_scf                                              900
                        No outer loop optimization
                        step_size                                       5.00E-01

 PW_GRID| Information for grid number                                          1
 PW_GRID| Grid distributed over                                    16 processors
 PW_GRID| Real space group dimensions                                    16    1
 PW_GRID| the grid is blocked:                                                NO
 PW_GRID| Cutoff [a.u.]                                                    400.0
 PW_GRID| spherical cutoff:                                                   NO
 PW_GRID|   Bounds   1           -120     119                Points:         240
 PW_GRID|   Bounds   2           -120     119                Points:         240
 PW_GRID|   Bounds   3           -120     119                Points:         240
 PW_GRID| Volume element (a.u.^3)  0.1340E-02     Volume (a.u.^3)     18517.4301
 PW_GRID| Grid span                                                    FULLSPACE
 PW_GRID|   Distribution                         Average         Max         Min
 PW_GRID|   G-Vectors                           864000.0      864000      864000
 PW_GRID|   G-Rays                                3600.0        3600        3600
 PW_GRID|   Real Space Points                   864000.0      864000      864000

 PW_GRID| Information for grid number                                          2
 PW_GRID| Number of the reference grid                                         1
 PW_GRID| Grid distributed over                                    16 processors
 PW_GRID| Real space group dimensions                                    16    1
 PW_GRID| the grid is blocked:                                                NO
 PW_GRID| Cutoff [a.u.]                                                    200.0
 PW_GRID| spherical cutoff:                                                   NO
 PW_GRID|   Bounds   1            -90      89                Points:         180
 PW_GRID|   Bounds   2            -90      89                Points:         180
 PW_GRID|   Bounds   3            -90      89                Points:         180
 PW_GRID| Volume element (a.u.^3)  0.3175E-02     Volume (a.u.^3)     18517.4301
 PW_GRID| Grid span                                                    FULLSPACE
 PW_GRID|   Distribution                         Average         Max         Min
 PW_GRID|   G-Vectors                           364500.0      364680      364320
 PW_GRID|   G-Rays                                2025.0        2026        2024
 PW_GRID|   Real Space Points                   364500.0      388800      356400

 PW_GRID| Information for grid number                                          3
 PW_GRID| Number of the reference grid                                         2
 PW_GRID| Grid distributed over                                    16 processors
 PW_GRID| Real space group dimensions                                    16    1
 PW_GRID| the grid is blocked:                                                NO
 PW_GRID| Cutoff [a.u.]                                                     66.7
 PW_GRID| spherical cutoff:                                                   NO
 PW_GRID|   Bounds   1            -50      49                Points:         100
 PW_GRID|   Bounds   2            -50      49                Points:         100
 PW_GRID|   Bounds   3            -50      49                Points:         100
 PW_GRID| Volume element (a.u.^3)  0.1852E-01     Volume (a.u.^3)     18517.4301
 PW_GRID| Grid span                                                    FULLSPACE
 PW_GRID|   Distribution                         Average         Max         Min
 PW_GRID|   G-Vectors                            62500.0       62600       62400
 PW_GRID|   G-Rays                                 625.0         626         624
 PW_GRID|   Real Space Points                    62500.0       70000       60000

 PW_GRID| Information for grid number                                          4
 PW_GRID| Number of the reference grid                                         2
 PW_GRID| Grid distributed over                                    16 processors
 PW_GRID| Real space group dimensions                                    16    1
 PW_GRID| the grid is blocked:                                                NO
 PW_GRID| Cutoff [a.u.]                                                     22.2
 PW_GRID| spherical cutoff:                                                   NO
 PW_GRID|   Bounds   1            -30      29                Points:          60
 PW_GRID|   Bounds   2            -30      29                Points:          60
 PW_GRID|   Bounds   3            -30      29                Points:          60
 PW_GRID| Volume element (a.u.^3)  0.8573E-01     Volume (a.u.^3)     18517.4301
 PW_GRID| Grid span                                                    FULLSPACE
 PW_GRID|   Distribution                         Average         Max         Min
 PW_GRID|   G-Vectors                            13500.0       13560       13440
 PW_GRID|   G-Rays                                 225.0         226         224
 PW_GRID|   Real Space Points                    13500.0       14400       10800

 PW_GRID| Information for grid number                                          5
 PW_GRID| Number of the reference grid                                         2
 PW_GRID| Grid distributed over                                    16 processors
 PW_GRID| Real space group dimensions                                    16    1
 PW_GRID| the grid is blocked:                                                NO
 PW_GRID| Cutoff [a.u.]                                                      7.4
 PW_GRID| spherical cutoff:                                                   NO
 PW_GRID|   Bounds   1            -18      17                Points:          36
 PW_GRID|   Bounds   2            -18      17                Points:          36
 PW_GRID|   Bounds   3            -18      17                Points:          36
 PW_GRID| Volume element (a.u.^3)  0.3969         Volume (a.u.^3)     18517.4301
 PW_GRID| Grid span                                                    FULLSPACE
 PW_GRID|   Distribution                         Average         Max         Min
 PW_GRID|   G-Vectors                             2916.0        2952        2880
 PW_GRID|   G-Rays                                  81.0          82          80
 PW_GRID|   Real Space Points                     2916.0        3888        2592

 POISSON| Solver                                          Martyna-Tuckerman (MT)
 POISSON| MT| Alpha                                                        7.000
 POISSON| MT| Relative cutoff                                                2.0
 POISSON| Periodicity                                                       NONE

 RS_GRID| Information for grid number                                          2
 RS_GRID|   Bounds   1            -90      89                Points:         180
 RS_GRID|   Bounds   2            -90      89                Points:         180
 RS_GRID|   Bounds   3            -90      89                Points:         180
 RS_GRID| Real space distribution over                                  4 groups
 RS_GRID| Real space distribution along direction                              2
 RS_GRID| Border size                                                         31
 RS_GRID| Real space distribution over                                  4 groups
 RS_GRID| Real space distribution along direction                              3
 RS_GRID| Border size                                                         31
 RS_GRID|   Distribution                         Average         Max         Min
 RS_GRID|   Planes                                 107.0         107         107
 RS_GRID|   Distribution                         Average         Max         Min
 RS_GRID|   Planes                                 107.0         107         107

 RS_GRID| Information for grid number                                          3
 RS_GRID|   Bounds   1            -50      49                Points:         100
 RS_GRID|   Bounds   2            -50      49                Points:         100
 RS_GRID|   Bounds   3            -50      49                Points:         100
 RS_GRID| Real space fully replicated
 RS_GRID| Group size                                                           1

 RS_GRID| Information for grid number                                          4
 RS_GRID|   Bounds   1            -30      29                Points:          60
 RS_GRID|   Bounds   2            -30      29                Points:          60
 RS_GRID|   Bounds   3            -30      29                Points:          60
 RS_GRID| Real space fully replicated
 RS_GRID| Group size                                                           1

 RS_GRID| Information for grid number                                          5
 RS_GRID|   Bounds   1            -18      17                Points:          36
 RS_GRID|   Bounds   2            -18      17                Points:          36
 RS_GRID|   Bounds   3            -18      17                Points:          36
 RS_GRID| Real space fully replicated
 RS_GRID| Group size                                                           1

  HFX_INFO| Replica ID:                                                        1
  HFX_INFO| FRACTION:                                               0.2000000000
  HFX_INFO| Interaction Potential:                                       COULOMB
  HFX_INFO| EPS_SCHWARZ:                                                 1.0E-10
  HFX_INFO| EPS_SCHWARZ_FORCES                                           1.0E-08
  HFX_INFO| EPS_STORAGE_SCALING:                                         1.0E+00
  HFX_INFO| NBINS:                                                            64
  HFX_INFO| BLOCK_SIZE:                                                        1
  HFX_INFO| Number of periodic shells considered:                           NONE
  HFX_INFO| Number of periodic cells considered:                            NONE


 Number of electrons:                                                         42
 Number of occupied orbitals:                                                 21
 Number of molecular orbitals:                                                21

 Number of orbital functions:                                                210
 Number of independent orbital functions:                                    210

 Extrapolation method: initial_guess


 SCF WAVEFUNCTION OPTIMIZATION

  ----------------------------------- OT ---------------------------------------
  Minimizer      : DIIS                : direct inversion
                                         in the iterative subspace
                                         using   7 DIIS vectors
                                         safer DIIS on
  Preconditioner : FULL_ALL            : diagonalization, state selective
  Precond_solver : DEFAULT
  stepsize       :    0.15000000                  energy_gap     :    0.08000000
  eps_taylor     :   0.10000E-15                  max_taylor     :             4
  ----------------------------------- OT ---------------------------------------

  Step     Update method      Time    Convergence         Total energy    Change
  ------------------------------------------------------------------------------

  HFX_MEM_INFO| Est. max. program size before HFX [MiB]:                     640
  HFX_MEM_INFO| Number of cart. primitive ERI's calculated:           1694111760
  HFX_MEM_INFO| Number of sph. ERI's calculated:                       315071891
  HFX_MEM_INFO| Number of sph. ERI's stored in-core:                   315071891
  HFX_MEM_INFO| Number of sph. ERI's stored on disk:                           0
  HFX_MEM_INFO| Number of sph. ERI's calculated on the fly:                    0
  HFX_MEM_INFO| Total memory consumption ERI's RAM [MiB]:                    926
  HFX_MEM_INFO| Whereof max-vals [MiB]:                                        5
  HFX_MEM_INFO| Total compression factor ERI's RAM:                         2.60
  HFX_MEM_INFO| Total memory consumption ERI's disk [MiB]:                     0
  HFX_MEM_INFO| Total compression factor ERI's disk:                        0.00
  HFX_MEM_INFO| Size of density/Fock matrix [MiB]:                             0
  HFX_MEM_INFO| Size of buffers [MiB]:                                         0
  HFX_MEM_INFO| Est. max. program size after HFX  [MiB]:                     697

     1 OT DIIS     0.15E+00    5.7     0.01677555      -263.9547260758 -2.64E+02
     2 OT DIIS     0.15E+00    1.0     0.00818622      -264.0792805566 -1.25E-01
     3 OT DIIS     0.15E+00    1.0     0.00691834      -264.1015988518 -2.23E-02
     4 OT DIIS     0.15E+00    1.0     0.00110834      -264.1112282530 -9.63E-03
     5 OT DIIS     0.15E+00    1.0     0.00034803      -264.1114895335 -2.61E-04
     6 OT DIIS     0.15E+00    1.0     0.00016579      -264.1115235610 -3.40E-05
     7 OT DIIS     0.15E+00    1.0     0.00008985      -264.1115330592 -9.50E-06
     8 OT DIIS     0.15E+00    1.0     0.00003593      -264.1115349197 -1.86E-06
     9 OT DIIS     0.15E+00    1.0     0.00001140      -264.1115352763 -3.57E-07
    10 OT DIIS     0.15E+00    1.0     0.00000617      -264.1115353333 -5.70E-08
    11 OT DIIS     0.15E+00    1.0     0.00000202      -264.1115353517 -1.83E-08
    12 OT DIIS     0.15E+00    1.0     0.00000118      -264.1115353539 -2.19E-09
    13 OT DIIS     0.15E+00    1.0     0.00000062      -264.1115353542 -3.19E-10
    14 OT DIIS     0.15E+00    1.0     0.00000016      -264.1115353543 -1.32E-10
    15 OT DIIS     0.15E+00    1.0     0.00000007      -264.1115353543 -1.56E-11
    16 OT DIIS     0.15E+00    1.0     0.00000004      -264.1115353543 -6.37E-12
    17 OT DIIS     0.15E+00    1.0     0.00000002      -264.1115353543 -3.58E-12
    18 OT DIIS     0.15E+00    1.0     8.6493E-09      -264.1115353543 -1.24E-11

  *** SCF run converged in    18 steps ***


  Electronic density on regular grids:        -30.6588323031       11.3411676969
  Core density on regular grids:               42.0000000000       -0.0000000000
  Hard and soft densities (Lebedev):          -93.5339070289      -82.1927393529
  Total Rho_soft + Rho1_hard - Rho1_soft      -41.9999999791
  Total charge density (r-space):               0.0000000209
  Total Rho_soft + Rho0_soft (g-space):        -0.0000000048

  Overlap energy of the core charge distribution:               0.00001213669353
  Self energy of the core charge distribution:               -217.69203579805162
  Core Hamiltonian energy:                                    -42.33396576382142
  Hartree energy:                                             110.26322708474305
  Exchange-correlation energy:                                -11.09362001158117
  Hartree-Fock Exchange energy:                                -7.01777283526056
  Dispersion energy:                                           -0.00402719977255

  GAPW| Exc from hard and soft atomic rho1:                   -18.54201767095527
  GAPW| local Eh = 1 center integrals:                        -77.69133529633660

  Total energy:                                              -264.11153535434272

  outer SCF iter =    1 RMS gradient =   0.86E-08 energy =       -264.1115353543
  outer SCF loop converged in   1 iterations or   18 steps


 !-----------------------------------------------------------------------------!
                     Mulliken Population Analysis

 #  Atom  Element  Kind  Atomic population                           Net charge
       1     n        1          7.166729                             -0.166729
       2     n        1          7.261841                             -0.261841
       3     c        2          6.025882                             -0.025882
       4     c        2          6.048396                             -0.048396
       5     c        2          6.025328                             -0.025328
       6     c        2          6.014153                             -0.014153
       7     h        3          0.892613                              0.107387
       8     h        3          0.839840                              0.160160
       9     h        3          0.871001                              0.128999
      10     h        3          0.854217                              0.145783
 # Total charge                             42.000000                 -0.000000

 !-----------------------------------------------------------------------------!

 !-----------------------------------------------------------------------------!
                           Hirshfeld Charges

  #Atom  Element  Kind  Ref Charge     Population                    Net charge
      1       n      1       7.000          7.279                        -0.279
      2       n      1       7.000          7.358                        -0.358
      3       c      2       6.000          6.336                        -0.336
      4       c      2       6.000          6.341                        -0.341
      5       c      2       6.000          6.331                        -0.331
      6       c      2       6.000          6.325                        -0.325
      7       h      3       1.000          0.521                         0.479
      8       h      3       1.000          0.493                         0.507
      9       h      3       1.000          0.504                         0.496
     10       h      3       1.000          0.501                         0.499

  Total Charge                                                            0.011
 !-----------------------------------------------------------------------------!

 *******************************************************************************
 **                                                                           **
 **         ######## #######   #######   ######## #######  ########           **
 **            ##    ##     ## ##     ## ##       ##   ##     ##              **
 **            ##    ##     ## ##     ## ######   #######     ##              **
 **            ##    ##     ## ##     ## ##       ##          ##              **
 **            ##    #######   #######   ##       ##          ##              **
 **                                                                           **
 *******************************************************************************
 KERNEL|                                                                    FULL
 FUNCTIONAL| BECKE88:
 FUNCTIONAL| A. Becke, Phys. Rev. A 38, 3098 (1988) {LDA version}               
 FUNCTIONAL| LYP:
 FUNCTIONAL| C. Lee, W. Yang, R.G. Parr, Phys. Rev. B, 37, 785 (1988) {LDA versi
 FUNCTIONAL| on}                                                                
 FUNCTIONAL| VWN:
 FUNCTIONAL| S. H. Vosko, L. Wilk and M. Nusair, Can. J. Phys. 58, 1200 (1980) {
 FUNCTIONAL| LDA version}                                                       
 FUNCTIONAL| XALPHA:
 FUNCTIONAL| Dirac/Slater local exchange; parameter=  0.666 {LDA}               
 KERNEL|                                                          Exact Exchange
 KERNEL| Spin symmetry of excitations                                    Singlet
 TDDFPT| Number of states calculated                                           9
 TDDFPT| Number of Davidson iterations                                       100
 TDDFPT| Davidson iteration convergence                                0.367E-09
 TDDFPT| Max. number of Krylov space vectors                                5000
 TDDFPT| Molecular Orbitals:        Spin       AOs       Occ      Virt     Total
 TDDFPT|                               1       210        21       189       210
 
 -------------------------------------------------------------------------------
 -                            TDDFPT Initial Guess                             -
 -------------------------------------------------------------------------------
          State         Occupied      ->      Virtual          Excitation
          number         orbital              orbital          energy (eV)
 -------------------------------------------------------------------------------
             1               21                   22              3.00349
             2               21                   23              4.31024
             3               20                   22              4.84335
             4               19                   22              5.18480
             5               18                   22              5.86184
             6               20                   23              6.15010
             7               19                   23              6.49154
             8               21                   24              6.94034
             9               18                   23              7.16858

      Number of active states:                                       3969
 -------------------------------------------------------------------------------
 
 -------------------------------------------------------------------------------
 -                      TDDFPT WAVEFUNCTION OPTIMIZATION                       -
 -------------------------------------------------------------------------------

          Step            Time         Convergence           Conv. states
 -------------------------------------------------------------------------------

    State    Exc. energy (eV)      Convergence (eV)
        1       2.0306287            -9.7287E-01
        2       3.1664797            -1.1438E+00
        3       3.6958518            -1.1475E+00
        4       4.7684531            -4.1635E-01
        5       5.0298459            -8.3199E-01
        6       5.9022937            -2.4780E-01
        7       7.1521064             6.6057E-01
        8       8.3873935             1.4471E+00
        9       9.2794568             2.1109E+00

             1            10.6          7.7573E-02                      0

    State    Exc. energy (eV)      Convergence (eV)
        1       1.9134394            -1.1719E-01
        2       3.0690043            -9.7475E-02
        3       3.6332919            -6.2560E-02
        4       4.6987858            -6.9667E-02
        5       4.9360823            -9.3764E-02
        6       5.6114958            -2.9080E-01
        7       5.9292779            -1.2228E+00
        8       6.9931215            -1.3943E+00
        9       7.5846488            -1.6948E+00

             2            10.5          6.2283E-02                      0

    State    Exc. energy (eV)      Convergence (eV)
        1       1.9079938            -5.4455E-03
        2       3.0657273            -3.2770E-03
        3       3.6301638            -3.1280E-03
        4       4.6941449            -4.6408E-03
        5       4.9314257            -4.6566E-03
        6       5.5192779            -9.2218E-02
        7       5.8683336            -6.0944E-02
        8       6.2679639            -7.2516E-01
        9       6.6551130            -9.2954E-01

             3            10.5          3.4160E-02                      0

    State    Exc. energy (eV)      Convergence (eV)
        1       1.9078471            -1.4675E-04
        2       3.0656455            -8.1800E-05
        3       3.6300392            -1.2460E-04
        4       4.6939281            -2.1682E-04
        5       4.9312929            -1.3289E-04
        6       5.5097997            -9.4782E-03
        7       5.8627715            -5.5621E-03
        8       6.2351691            -3.2795E-02
        9       6.5696055            -8.5507E-02

             4            10.5          3.1423E-03                      0

    State    Exc. energy (eV)      Convergence (eV)
        1       1.9078457            -1.3942E-06
        2       3.0656440            -1.5101E-06
        3       3.6300362            -2.9963E-06
        4       4.6939212            -6.8890E-06
        5       4.9312887            -4.1604E-06
        6       5.5094219            -3.7778E-04
        7       5.8624998            -2.7177E-04
        8       6.2321305            -3.0385E-03
        9       6.5543202            -1.5285E-02

             5            10.5          5.6173E-04                      0

    State    Exc. energy (eV)      Convergence (eV)
        1       1.9078457            -9.0239E-09
        2       3.0656440            -1.9653E-08
        3       3.6300362            -3.5550E-08
        4       4.6939211            -9.9700E-08
        5       4.9312886            -8.7511E-08
        6       5.5094070            -1.4946E-05
        7       5.8624872            -1.2515E-05
        8       6.2317805            -3.4999E-04
        9       6.5489333            -5.3869E-03

             6            10.5          1.9796E-04                      1

    State    Exc. energy (eV)      Convergence (eV)
        1       1.9078457            -6.0471E-11
        2       3.0656440            -1.7752E-10
        3       3.6300362            -3.6113E-10
        4       4.6939211            -1.2026E-09
        5       4.9312886            -1.5926E-09
        6       5.5094066            -3.4572E-07
        7       5.8624869            -3.9170E-07
        8       6.2317599            -2.0599E-05
        9       6.4765814            -7.2352E-02

             7            10.5          2.6589E-03                      5

    State    Exc. energy (eV)      Convergence (eV)
        1       1.9078457            -3.5989E-13
        2       3.0656440            -1.2273E-12
        3       3.6300362            -2.9856E-12
        4       4.6939211            -1.8816E-11
        5       4.9312886            -1.9292E-11
        6       5.5094066            -5.7847E-09
        7       5.8624868            -9.7124E-09
        8       6.2317594            -5.4162E-07
        9       6.4735992            -2.9822E-03

             8            10.5          1.0959E-04                      7

    State    Exc. energy (eV)      Convergence (eV)
        1       1.9078457             9.4408E-15
        2       3.0656440            -1.1329E-15
        3       3.6300362            -1.9637E-14
        4       4.6939211            -1.3595E-13
        5       4.9312886            -1.6616E-13
        6       5.5094066            -7.0866E-11
        7       5.8624868            -1.2055E-10
        8       6.2317594            -7.0484E-09
        9       6.4735473            -5.1888E-05

             9            10.5          1.9069E-06                      8

    State    Exc. energy (eV)      Convergence (eV)
        1       1.9078457            -6.0421E-15
        2       3.0656440            -1.1707E-14
        3       3.6300362             1.5105E-14
        4       4.6939211             5.2869E-15
        5       4.9312886             3.7763E-15
        6       5.5094066            -5.2567E-13
        7       5.8624868            -9.9242E-13
        8       6.2317594            -7.7818E-11
        9       6.4735467            -6.2557E-07

            10            10.5          2.2989E-08                      8

    State    Exc. energy (eV)      Convergence (eV)
        1       1.9078457             4.9092E-15
        2       3.0656440             8.6856E-15
        3       3.6300362            -1.0574E-14
        4       4.6939211            -1.5105E-15
        5       4.9312886             7.5527E-16
        6       5.5094066             2.2658E-15
        7       5.8624868            -6.0421E-15
        8       6.2317594            -7.5376E-13
        9       6.4735467            -6.6172E-09

            11            10.5          2.4318E-10                      9
 ------------------------- Restart Davidson iterations -------------------------

    State    Exc. energy (eV)      Convergence (eV)
        1       1.9078457            -5.6645E-15
        2       3.0656440             6.4198E-15
        3       3.6300362             2.2658E-15
        4       4.6939211            -7.5527E-15
        5       4.9312886            -2.2658E-15
        6       5.5094066             7.5527E-16
        7       5.8624868            -1.5105E-15
        8       6.2317594            -8.3079E-15
        9       6.4735467             2.0392E-14

            12            10.5          7.4940E-16                      9
 
 -------------------------------------------------------------------------------
 -  TDDFPT run converged in 12 iteration(s) 
 -------------------------------------------------------------------------------

 R-TDDFPT states of multiplicity 1
 Transition dipoles calculated using length formulation

         State    Excitation        Transition dipole (a.u.)        Oscillator
         number   energy (eV)       x           y           z     strength (a.u.)
         ------------------------------------------------------------------------
 TDDFPT|      1       1.90785  -1.7321E-01 -3.6093E-01 -7.0166E-02   7.72153E-03
 TDDFPT|      2       3.06564  -1.1472E-01  1.1179E-02  2.3049E-01   4.98818E-03
 TDDFPT|      3       3.63004   3.8939E-02 -4.9487E-02 -1.7332E-01   3.02417E-03
 TDDFPT|      4       4.69392   3.8909E-02 -2.8309E-01  6.2040E-02   9.83303E-03
 TDDFPT|      5       4.93129   2.3633E-02 -3.3265E-01  2.7392E-02   1.35271E-02
 TDDFPT|      6       5.50941   2.4118E-01  7.5856E-01 -4.8752E-01   1.17601E-01
 TDDFPT|      7       5.86249   3.1634E-01  5.7288E-01 -2.0766E-01   6.77036E-02
 TDDFPT|      8       6.23176  -5.9092E-02  5.5833E-01  5.5491E-01   9.51387E-02
 TDDFPT|      9       6.47355  -9.6930E-03  1.6556E-01  4.8027E-02   4.72781E-03

 TDDFPT : CheckSum  =  0.542634E+00
 
 -------------------------------------------------------------------------------
 -                            Excitation analysis                              -
 -------------------------------------------------------------------------------
        State             Occupied              Virtual             Excitation
        number             orbital              orbital             amplitude
 -------------------------------------------------------------------------------
             1   1.90785 eV
                                21                   22              -0.976846
                                19                   22               0.143860
                                18                   22              -0.083796
                                19                   23              -0.067144
                                18                   23              -0.059070
             2   3.06564 eV
                                21                   23              -0.976516
                                19                   23               0.094588
                                18                   23              -0.090780
                                19                   22              -0.087480
                                20                   23               0.086791
                                20                   22               0.082453
             3   3.63004 eV
                                20                   22               0.910676
                                19                   22              -0.346912
                                18                   22              -0.172724
                                21                   23               0.102326
                                19                   23              -0.054659
             4   4.69392 eV
                                20                   23              -0.748357
                                18                   22               0.588125
                                19                   22              -0.223873
                                19                   23              -0.141968
                                21                   24              -0.079391
                                18                   23              -0.073064
                                21                   22              -0.056534
             5   4.93129 eV
                                20                   23               0.585003
                                19                   23              -0.524370
                                18                   22               0.513940
                                19                   22              -0.252941
                                18                   23              -0.161257
                                21                   24               0.117635
             6   5.50941 eV
                                19                   22               0.637655
                                21                   24              -0.496483
                                20                   22               0.319617
                                18                   22               0.318913
                                21                   27               0.182362
                                18                   23               0.144723
                                20                   23               0.108616
                                19                   23              -0.074240
                                21                   38              -0.069572
                                21                   22               0.064213
                                21                   28              -0.061784
                                21                   29               0.056803
                                21                   25               0.052013
                                16                   23              -0.050657
             7   5.86249 eV
                                21                   24               0.816147
                                19                   22               0.374736
                                18                   23               0.210674
                                21                   27               0.141267
                                17                   22               0.136562
                                20                   23              -0.125937
                                20                   22               0.122791
                                19                   23              -0.118342
                                18                   22               0.099000
                                16                   22               0.096375
                                16                   23              -0.078856
                                21                   22               0.060755
             8   6.23176 eV
                                17                   22              -0.678200
                                19                   23              -0.554998
                                18                   22              -0.256978
                                16                   22              -0.255453
                                20                   23              -0.157167
                                19                   22               0.124623
                                21                   28               0.083302
                                21                   25               0.082098
                                21                   23              -0.078513
                                20                   24               0.066037
                                21                   22               0.059532
             9   6.47355 eV
                                21                   25              -0.970952
                                18                   23               0.141345
                                21                   27               0.096581
                                21                   26              -0.085670
                                21                   24              -0.063322
                                17                   22              -0.059089
 -------------------------------------------------------------------------------
 
 -------------------------------------------------------------------------------
 -                            Natural Orbital analysis                         -
 -------------------------------------------------------------------------------
   STATE NR.      1             1.90785 eV
     Particle-Hole state: 1   Spin:1     Eigenvalue: 0.98684   Sum Eigv: 0.98684
   STATE NR.      2             3.06564 eV
     Particle-Hole state: 1   Spin:1     Eigenvalue: 0.98106   Sum Eigv: 0.98106
   STATE NR.      3             3.63004 eV
     Particle-Hole state: 1   Spin:1     Eigenvalue: 0.98149   Sum Eigv: 0.98149
   STATE NR.      4             4.69392 eV
     Particle-Hole state: 1   Spin:1     Eigenvalue: 0.59099   Sum Eigv: 0.59099
     Particle-Hole state: 2   Spin:1     Eigenvalue: 0.39924   Sum Eigv: 0.99023
   STATE NR.      5             4.93129 eV
     Particle-Hole state: 1   Spin:1     Eigenvalue: 0.65045   Sum Eigv: 0.65045
     Particle-Hole state: 2   Spin:1     Eigenvalue: 0.33073   Sum Eigv: 0.98118
   STATE NR.      6             5.50941 eV
[...]
  total size                         1.200162E+09
  min size                           0.000000E+00
  max size                          31.744000E+03
  average size                       7.679169E+03
 MPI breakdown and total messages size (bytes):
             size <=      128               87072                        0
       128 < size <=     8192               12678                 87106320
      8192 < size <=    32768               56538               1113055776
     32768 < size <=   131072                   0                        0
    131072 < size <=  4194304                   0                        0
   4194304 < size <= 16777216                   0                        0
  16777216 < size                               0                        0
 -------------------------------------------------------------------------------
 -                                                                             -
 -                      DBCSR MESSAGE PASSING PERFORMANCE                      -
 -                                                                             -
 -------------------------------------------------------------------------------
 ROUTINE             CALLS      AVE VOLUME [Bytes]
 MP_Bcast               28                     12.
 MP_Allreduce         6972                      8.
 MP_Alltoall         27423                   2764.
 MP_ISend            26044                   3607.
 MP_IRecv            26044                   3321.
 -------------------------------------------------------------------------------

 -------------------------------------------------------------------------------
 -                                                                             -
 -                                DBM STATISTICS                               -
 -                                                                             -
 -------------------------------------------------------------------------------
    M  x    N  x    K                                          COUNT     PERCENT
 -------------------------------------------------------------------------------

 -------------------------------------------------------------------------------
 -                                                                             -
 -                                GRID STATISTICS                              -
 -                                                                             -
 -------------------------------------------------------------------------------
 LP    KERNEL             BACKEND                              COUNT     PERCENT
 1     collocate ortho    CPU                                 276816      15.84%
 2     collocate ortho    CPU                                 226098      12.94%
 1     integrate ortho    CPU                                 216704      12.40%
 0     collocate ortho    CPU                                 191496      10.96%
 2     integrate ortho    CPU                                 181064      10.36%
 3     collocate ortho    CPU                                 151917       8.69%
 0     integrate ortho    CPU                                 145440       8.32%
 3     integrate ortho    CPU                                 123012       7.04%
 4     collocate ortho    CPU                                  65412       3.74%
 4     integrate ortho    CPU                                  54808       3.14%
 4     collocate general  CPU                                  22944       1.31%
 5     collocate ortho    CPU                                  19908       1.14%
 5     integrate ortho    CPU                                  17328       0.99%
 4     integrate general  CPU                                  17280       0.99%
 2     collocate general  CPU                                  15296       0.88%
 2     integrate general  CPU                                  11520       0.66%
 6     collocate ortho    CPU                                   4977       0.28%
 6     integrate ortho    CPU                                   4452       0.25%
 5     integrate general  CPU                                    384       0.02%
 3     integrate general  CPU                                    256       0.01%
 7     integrate ortho    CPU                                    168       0.01%
 0     collocate general  CPU                                    160       0.01%
 0     integrate general  CPU                                    160       0.01%
 -------------------------------------------------------------------------------

 MEMORY| Estimated peak process memory [MiB]                                1280

 -------------------------------------------------------------------------------
 ----                             MULTIGRID INFO                            ----
 -------------------------------------------------------------------------------
 count for grid        1:         109536          cutoff [a.u.]          200.00
 count for grid        2:          22507          cutoff [a.u.]           66.67
 count for grid        3:           8627          cutoff [a.u.]           22.22
 count for grid        4:           1858          cutoff [a.u.]            7.41
 total gridlevel count  :         142528

 -------------------------------------------------------------------------------
 -                                                                             -
 -                         MESSAGE PASSING PERFORMANCE                         -
 -                                                                             -
 -------------------------------------------------------------------------------

 ROUTINE             CALLS      AVE VOLUME [Bytes]
 MP_Group                5
 MP_Bcast             5246                 897775.
 MP_Allreduce        16379                 142595.
 MP_Sync              1535
 MP_Alltoall          4648               14998812.
 MP_SendRecv         10725                 234118.
 MP_ISendRecv        17385                 126259.
 MP_Wait             37111
 MP_comm_split          52
 MP_ISend            17007                 822568.
 MP_IRecv            17178                 813987.
 -------------------------------------------------------------------------------


 -------------------------------------------------------------------------------
 -                                                                             -
 -                           R E F E R E N C E S                               -
 -                                                                             -
 -------------------------------------------------------------------------------
 
 CP2K version 2024.1 (Development Version), the CP2K developers group (2024).
 CP2K is freely available from https://www.cp2k.org/ .

 Kuehne,Thomas D.; Iannuzzi,Marcella; Del Ben,Mauro;
 Rybkin,Vladimir V.; Seewald,Patrick; Stein,Frederick; Laino,Teodoro;
 Khaliullin,Rustam Z.; Schuett,Ole; Schiffmann,Florian; Golze,Dorothea;
 Wilhelm,Jan; Chulkov,Sergey; Bani-Hashemian,Mohammad Hossein;
 Weber,Valery; Borstnik,Urban; Taillefumier,Mathieu;
 Jakobovits,Alice Shoshana; Lazzaro,Alfio; Pabst,Hans; Mueller,Tiziano;
 Schade,Robert; Guidon,Manuel; Andermatt,Samuel; Holmberg,Nico;
 Schenter,Gregory K.; Hehn,Anna; Bussy,Augustin; Belleflamme,Fabian;
 Tabacchi,Gloria; Gloess,Andreas; Lass,Michael; Bethune,Iain;
 Mundy,Christopher J.; Plessl,Christian; Watkins,Matt;
 VandeVondele,Joost; Krack,Matthias; Hutter,Juerg. 
 The Journal of Chemical Physics, 152 (19), (2020). 
 CP2K: An electronic structure and molecular dynamics software package -
 Quickstep: Efficient and accurate electronic structure calculations.
 https://doi.org/10.1063/5.0007045

 Goerigk, Lars; Hansen, Andreas; Bauer, Christoph; Ehrlich, Stephan;
 Najibi, Asim; Grimme, Stefan. , 19 (48), (2017). 
 A look at the density functional theory zoo with the advanced GMTKN55 database
 for general main group thermochemistry, kinetics and noncovalent interactions.
 https://doi.org/10.1039/C7CP04913G

 Schuett, Ole; Messmer, Peter; Hutter, Juerg; VandeVondele, Joost. 
 Electronic Structure Calculations on Graphics Processing Units, John
 Wiley & Sons, Ltd, 173-190 (2016). 
 GPU-Accelerated Sparse Matrix-Matrix Multiplication for
 Linear Scaling Density Functional Theory.
 https://doi.org/10.1002/9781118670712.ch8

 Heinecke, A; Henry, G; Hutchinson, M; Pabst, H. 
 Proceedings of Intl. Supercomputing Conference, 981-991 (2016). 
 LIBXSMM: Accelerating Small Matrix Multiplications
 by Runtime Code Generation.
 https://doi.org/10.1109/SC.2016.83

 Borstnik, U; VandeVondele, J; Weber, V; Hutter, J. 
 PARALLEL COMPUTING, 40 (5-6), 47-58 (2014). 
 Sparse matrix multiplication: The distributed block-compressed sparse
 row library.
 https://doi.org/10.1016/j.parco.2014.03.012

 Hutter, J; Iannuzzi, M; Schiffmann, F; VandeVondele, J. 
 WIREs Comput Mol Sci., 4 (1), 15-25 (2014). 
 CP2K: atomistic simulations of condensed matter systems.
 https://doi.org/10.1002/wcms.1159

 Grimme, S; Ehrlich, S; Goerigk, L. 
 JOURNAL OF COMPUTATIONAL CHEMISTRY, 32, 1456 (2011). 
 Effect of the damping function in dispersion corrected density functional theory.
 https://doi.org/10.1002/jcc.21759

 Grimme, S; Antony, J; Ehrlich, S; Krieg, H. 
 JOURNAL OF CHEMICAL PHYSICS, 132 (15), 154104 (2010). 
 A consistent and accurate ab initio parametrization of density
 functional dispersion correction (DFT-D) for the 94 elements H-Pu.
 https://doi.org/10.1063/1.3382344

 Guidon, M; Hutter, J; VandeVondele, J. 
 JOURNAL OF CHEMICAL THEORY AND COMPUTATION, 5 (11), 3010-3021 (2009). 
 Robust Periodic Hartree-Fock Exchange for Large-Scale Simulations Using
 Gaussian Basis Sets.
 https://doi.org/10.1021/ct900494g

 Guidon, M; Schiffmann, F; Hutter, J; VandeVondele, J. 
 JOURNAL OF CHEMICAL PHYSICS, 128 (21), 214104 (2008). 
 Ab initio molecular dynamics using hybrid density functionals.
 https://doi.org/10.1063/1.2931945

 VandeVondele, J; Hutter, J. 
 JOURNAL OF CHEMICAL PHYSICS, 127 (11), 114105 (2007). 
 Gaussian basis sets for accurate calculations on molecular systems in
 gas and condensed phases.
 https://doi.org/10.1063/1.2770708

 Frigo, M; Johnson, SG. 
 PROCEEDINGS OF THE IEEE, 93 (2), 216-231 (2005). 
 The design and implementation of FFTW3.
 https://doi.org/10.1109/JPROC.2004.840301

 Iannuzzi, M; Chassaing, T; Wallman, T; Hutter, J. 
 CHIMIA, 59 (7-8), 499-503 (2005). 
 Ground and excited state density functional calculations with the
 Gaussian and augmented-plane-wave method.
 https://doi.org/10.2533/000942905777676164

 VandeVondele, J; Hutter, J. 
 JOURNAL OF CHEMICAL PHYSICS, 118 (10), 4365-4369 (2003). 
 An efficient orbital transformation method for electronic structure
 calculations.
 https://doi.org/10.1063/1.1543154

 Martin,Richard L.. 
 The Journal of Chemical Physics, 118 (11), 4775-4777 (2003). 
 Natural transition orbitals.
 https://doi.org/10.1063/1.1558471

 Lippert, G; Hutter, J; Parrinello, M. 
 THEORETICAL CHEMISTRY ACCOUNTS, 103 (2), 124-140 (1999). 
 The Gaussian and augmented-plane-wave density functional method for ab
 initio molecular dynamics simulations.
 https://doi.org/10.1007/s002140050523

 Krack, M; Parrinello, M. 
 PHYSICAL CHEMISTRY CHEMICAL PHYSICS, 2 (10), 2105-2112 (2000). 
 All-electron ab-initio molecular dynamics.
 https://doi.org/10.1039/b001167n

 Martyna, GJ; Tuckerman, ME. 
 JOURNAL OF CHEMICAL PHYSICS, 110 (6), 2810-2821 (1999). 
 A reciprocal space based method for treating long range interactions in
 ab initio and force-field-based calculations in clusters.
 https://doi.org/10.1063/1.477923

 BECKE, AD. PHYSICAL REVIEW A, 38 (6), 3098-3100 (1988). 
 DENSITY-FUNCTIONAL EXCHANGE-ENERGY APPROXIMATION WITH CORRECT
 ASYMPTOTIC-BEHAVIOR.
 https://doi.org/10.1103/PhysRevA.38.3098

 LEE, CT; YANG, WT; PARR, RG. 
 PHYSICAL REVIEW B, 37 (2), 785-789 (1988). 
 DEVELOPMENT OF THE COLLE-SALVETTI CORRELATION-ENERGY FORMULA INTO A
 FUNCTIONAL OF THE ELECTRON-DENSITY.
 https://doi.org/10.1103/PhysRevB.37.785

 VOSKO, SH; WILK, L; NUSAIR, M. 
 CANADIAN JOURNAL OF PHYSICS, 58 (8), 1200-1211 (1980). 
 ACCURATE SPIN-DEPENDENT ELECTRON LIQUID CORRELATION ENERGIES FOR LOCAL
 SPIN-DENSITY CALCULATIONS - A CRITICAL ANALYSIS.
 https://doi.org/10.1139/p80-159


 -------------------------------------------------------------------------------
 -                                                                             -
 -                                T I M I N G                                  -
 -                                                                             -
 -------------------------------------------------------------------------------
 SUBROUTINE                       CALLS  ASD         SELF TIME        TOTAL TIME
                                MAXIMUM       AVERAGE  MAXIMUM  AVERAGE  MAXIMUM
 CP2K                                 1  1.0    0.014    0.019  295.732  295.732
 qs_forces                            1  2.0    0.001    0.001  294.740  294.740
 qs_energies                          1  3.0    0.000    0.000  185.397  185.398
 qs_energies_properties               1  4.0    0.000    0.000  162.032  162.033
 tddfpt                               1  5.0    0.000    0.000  162.032  162.033
 tddfpt_energies                      1  6.0    0.000    0.000  126.935  126.935
 tddfpt_davidson_solver               2  7.0    0.002    0.003  126.200  126.201
 tddfpt_compute_Aop_evects           12  8.0    0.000    0.000  125.800  125.800
 excited_state_energy                 2  3.5    0.001    0.001   96.785   96.786
 fft_wrap_pw1pw2                   4203 12.1    0.046    0.063   81.077   86.012
 fft_wrap_pw1pw2_200               2927 13.3    2.479    2.571   78.601   83.690
 fhxc_kernel                         12  9.0    0.004    0.004   79.205   79.205
 response_equation                    1  4.0    0.000    0.000   75.731   75.731
 linres_solver                        1  5.0    0.001    0.003   75.697   75.697
 apply_op                            53  6.0    0.002    0.002   75.613   75.614
 integrate_four_center              291 10.5    0.063    0.066   66.808   66.820
 fft3d_ps                          4203 14.1   33.577   35.165   59.563   64.512
 integrate_four_center_main         291 11.5    0.026    0.035   60.365   63.763
 integrate_four_center_bin        27645 12.5   60.339   63.742   60.339   63.742
 derivatives_four_center              4  8.5    0.004    0.006   48.525   49.771
 derivatives_four_center_main         4  9.5    0.000    0.001   48.436   49.682
 derivatives_four_center_bin        417 10.5   45.979   48.167   45.979   48.167
 xc_pw_derive                      1509 12.3    0.012    0.013   44.720   46.887
 tddfpt_apply_hfx                    12  9.0    0.002    0.002   46.474   46.474
 tddft_hfx_matrix                   216 10.0    0.005    0.005   46.015   46.016
 apply_op_2_dft                      52  7.0    0.003    0.004   44.188   44.299
 prepare_gapw_den                   243  8.7    0.006    0.006   38.841   39.041
 tddfpt_forces_main                   1  6.0    0.000    0.000   35.018   35.018
 tddfpt_forces                        1  7.0    0.000    0.000   33.694   33.694
 rebuild_ks_matrix                   19  6.8    0.000    0.000   33.344   33.345
 qs_ks_build_kohn_sham_matrix        19  7.8    0.003    0.003   33.344   33.345
 tddfpt_force_direct                  1  8.0    0.000    0.000   33.086   33.087
 tddfpt_kernel_force                  1  9.0    0.000    0.000   33.078   33.078
 fhxc_force                           1 10.0    0.001    0.001   33.077   33.078
 xc_pw_divergence                   224 12.2    0.006    0.006   27.164   29.519
 qs_rho_update_rho_low              232  8.5    0.002    0.002   25.994   25.997
 calculate_rho_elec                 237  9.5    0.390    0.416   25.968   25.973
 tddfpt_apply_xc_analytic           108 10.0    1.261    1.390   25.145   25.227
 qs_fxc_analytic                     53  8.0    0.002    0.003   24.481   24.567
 scf_env_do_scf                       1  4.0    0.000    0.000   23.159   23.159
 mp_alltoall_z22v                  4203 16.1   14.164   22.960   14.164   22.960
 calculate_rho0_atom                717  9.7   21.538   22.871   21.538   22.871
 xc_calc_2nd_deriv_analytical       842 11.1    1.781    1.972   21.267   21.586
 xc_rho_set_and_dset_create         117 11.9    2.142    2.438   18.009   21.511
 density_rs2pw                      237 10.5    0.010    0.010   20.216   21.164
 response_force                       1  4.0    0.005    0.007   21.053   21.054
 qs_ks_update_qs_env                 20  6.0    0.000    0.000   20.848   20.848
 hfx_ks_matrix                       19  8.8    0.001    0.001   20.397   20.397
 yz_to_x                           2156 15.2    4.932    5.390   14.311   19.357
 integrate_v_rspace                 188  9.3    0.004    0.004   17.696   18.628
 xc_calc_2nd_deriv                   54  8.9    0.638    0.719   15.516   17.645
 scf_env_do_scf_inner_loop           18  5.0    0.000    0.001   17.427   17.427
 qs_vxc_create                       62 11.7    0.001    0.001   17.164   17.170
 xc_vxc_pw_create                    62 12.7    0.178    0.190   17.163   17.169
 tddfpt_apply_coulomb               108 10.0    0.002    0.002   13.241   14.794
 x_to_yz                           2047 14.9    6.825    7.700   11.610   14.141
 potential_pw2rs                    188 10.3    0.019    0.020   12.399   13.330
 qs_ks_update_qs_env_forces           1  3.0    0.000    0.000   12.498   12.498
 qs_fgxc_gdiff                        1 11.0    0.000    0.000   11.810   11.812
 qs_fxc_fdiff                         7 12.0    0.001    0.001   11.780   11.783
 xc_prep_2nd_deriv                   55  8.9    0.000    0.000    9.577   11.448
 put_rho0_on_grid                   239  9.7    0.436    0.490   11.138   11.380
 apply_hfx                           52  7.0    0.001    0.001   11.121   11.130
 hfx_matrix                          52  8.0    0.001    0.001   11.117   11.125
 transfer_rs2pw                    1188 11.3    0.013    0.015    9.914   10.930
 pw_gather_p                       2156 14.2    9.139    9.497    9.139    9.497
 transfer_rs2pw_200                 477 12.1    3.832    3.983    7.808    8.875
 integrate_vhg0_rspace              184  9.8    1.998    2.122    8.585    8.600
 transfer_pw2rs                     937 11.2    0.009    0.009    8.269    8.310
 pw_poisson_solve                   185  9.8    0.003    0.004    6.204    7.919
 xc_functional_eval                3524 11.8    0.004    0.008    4.189    7.656
 mp_sum_d                          2405  9.2    4.562    7.398    4.562    7.398
 pw_scatter_p                      2047 13.9    6.801    6.915    6.801    6.915
 mp_waitany                       17000 13.1    5.648    6.792    5.648    6.792
 grid_collocate_task_list           237 10.5    4.913    6.600    4.913    6.600
 transfer_pw2rs_200                 373 12.1    3.186    3.240    6.403    6.481
 calculate_rho_atom                 729  9.7    3.679    6.041    3.679    6.041
 calculate_xc_2nd_deriv_atom        163  9.3    0.301    0.833    2.125    5.939
 -------------------------------------------------------------------------------

 The number of warnings for this run is : 0
 
 -------------------------------------------------------------------------------
  **** **** ******  **  PROGRAM ENDED AT                 2025-01-07 13:01:04.888
 ***** ** ***  *** **   PROGRAM RAN ON                               nesh-clk589
 **    ****   ******    PROGRAM RAN BY                                  suphc356
 ***** **    ** ** **   PROGRAM PROCESS ID                                 17523
  **** **  *******  **  PROGRAM STOPPED IN /gxfs_work/cau/suphc356/NEWTONX_proje
                                           ct/Pyrazin_molecule/CP2K_GAPW_B3LYP_d
                                           ef2_TZVP/MOLDYN_BA_again/TRAJECTORIES
                                           /TRAJ118/TEMP
