 DBCSR| CPU Multiplication driver                                           XSMM (U)
 DBCSR| Multrec recursion limit                                              512 (U)
 DBCSR| Multiplication stack size                                           1000 (D)
 DBCSR| Maximum elements for images                                    UNLIMITED (U)
 DBCSR| Multiplicative factor virtual images                                   1 (U)
 DBCSR| Use multiplication densification                                       T (D)
 DBCSR| Multiplication size stacks                                             3 (U)
 DBCSR| Use memory pool for CPU allocation                                     F (U)
 DBCSR| Number of 3D layers                                               SINGLE (U)
 DBCSR| Use MPI memory allocation                                              F (U)
 DBCSR| Use RMA algorithm                                                      F (U)
 DBCSR| Use Communication thread                                               T (U)
 DBCSR| Communication thread load                                             83 (D)
 DBCSR| MPI: My process id                                                     0
 DBCSR| MPI: Number of processes                                              16
 DBCSR| OMP: Current number of threads                                         2
 DBCSR| OMP: Max number of threads                                             2
 DBCSR| Split modifier for TAS multiplication algorithm                  1.0E+00 (U)


  **** **** ******  **  PROGRAM STARTED AT               2024-10-26 13:11:42.988
 ***** ** ***  *** **   PROGRAM STARTED ON                           nesh-clk439
 **    ****   ******    PROGRAM STARTED BY                              suphc356
 ***** **    ** ** **   PROGRAM PROCESS ID                               1855939
  **** **  *******  **  PROGRAM STARTED IN /gxfs_work/cau/suphc356/NEWTONX_proje
                                           ct/Pyrazin_molecule/CP2K_GPW_PBE_MOLO
                                           PT_TZVP_STDA/IC_TDDFT/JOB_AD

 CP2K| version string:                 CP2K version 2024.1 (Development Version)
 CP2K| source code revision number:                                  git:990486a
 CP2K| cp2kflags: omp libint fftw3 libxc libgrpp parallel mpi_f08 scalapack cosm
 CP2K|            a xsmm spglib mkl
 CP2K| is freely available from                            https://www.cp2k.org/
 CP2K| Program compiled at                          Mon Mar 11 08:48:45 CET 2024
 CP2K| Program compiled on                                           nesh-login2
 CP2K| Program compiled for                                                local
 CP2K| Data directory path                 /gxfs_work/cau/suphc356/cp2k_gcc/data
 CP2K| Input file name                                                  cp2k.inp

 GLOBAL| Force Environment number                                              1
 GLOBAL| Basis set file name                                     EMSL_BASIS_SETS
 GLOBAL| Potential file name                                           POTENTIAL
 GLOBAL| MM Potential file name                                     MM_POTENTIAL
 GLOBAL| Coordinate file name                                      __STD_INPUT__
 GLOBAL| Method name                                                        CP2K
 GLOBAL| Project name                                               testsuite_ad
 GLOBAL| Run type                                                         ENERGY
 GLOBAL| FFT library                                                       FFTW3
 GLOBAL| Diagonalization library                                       ScaLAPACK
 GLOBAL| DGEMM library                                                      BLAS
 GLOBAL| Orthonormality check for eigenvectors                          DISABLED
 GLOBAL| Matrix multiplication library                                     COSMA
 GLOBAL| All-to-all communication in single precision                          F
 GLOBAL| FFTs using library dependent lengths                                  F
 GLOBAL| Grid backend                                                       AUTO
 GLOBAL| Global print level                                               MEDIUM
 GLOBAL| MPI I/O enabled                                                       T
 GLOBAL| Total number of message passing processes                            16
 GLOBAL| Number of threads for this process                                    2
 GLOBAL| This output is from process                                           0
 GLOBAL| Stack size for threads created by OpenMP (OMP_STACKSIZE)           256M
 GLOBAL| CPU model name                Intel(R) Xeon(R) Gold 6226R CPU @ 2.90GHz
 GLOBAL| CPUID                                                              1003
 GLOBAL| Compiled for CPUID                                                    0

 *** HINT in environment.F:920 :: The compiler target flags (generic) used ***
 *** to build this binary cannot exploit all extensions of this CPU model  ***
 *** (x86_avx512). Consider compiler target flags as part of FCFLAGS and   ***
 *** CFLAGS (ARCH file).                                                   ***


 MEMORY| system memory details [Kb]
 MEMORY|                        rank 0           min           max       average
 MEMORY| MemTotal            196683224     196683224     196683224     196683224
 MEMORY| MemFree             176016564     176016564     176016564     176016564
 MEMORY| Buffers                553624        553624        553624        553624
 MEMORY| Cached                1036872       1036872       1036872       1036872
 MEMORY| Slab                  4825948       4825948       4825948       4825948
 MEMORY| SReclaimable           178184        178184        178184        178184
 MEMORY| MemLikelyFree       177785244     177785244     177785244     177785244


 *** Fundamental physical constants (SI units) ***

 *** Literature: B. J. Mohr and B. N. Taylor,
 ***             CODATA recommended values of the fundamental physical
 ***             constants: 2006, Web Version 5.1
 ***             http://physics.nist.gov/constants

 Speed of light in vacuum [m/s]                             2.99792458000000E+08
 Magnetic constant or permeability of vacuum [N/A**2]       1.25663706143592E-06
 Electric constant or permittivity of vacuum [F/m]          8.85418781762039E-12
 Planck constant (h) [J*s]                                  6.62606896000000E-34
 Planck constant (h-bar) [J*s]                              1.05457162825177E-34
 Elementary charge [C]                                      1.60217648700000E-19
 Electron mass [kg]                                         9.10938215000000E-31
 Electron g factor [ ]                                     -2.00231930436220E+00
 Proton mass [kg]                                           1.67262163700000E-27
 Fine-structure constant                                    7.29735253760000E-03
 Rydberg constant [1/m]                                     1.09737315685270E+07
 Avogadro constant [1/mol]                                  6.02214179000000E+23
 Boltzmann constant [J/K]                                   1.38065040000000E-23
 Atomic mass unit [kg]                                      1.66053878200000E-27
 Bohr radius [m]                                            5.29177208590000E-11

 *** Conversion factors ***

 [u] -> [a.u.]                                              1.82288848426455E+03
 [Angstrom] -> [Bohr] = [a.u.]                              1.88972613288564E+00
 [a.u.] = [Bohr] -> [Angstrom]                              5.29177208590000E-01
 [a.u.] -> [s]                                              2.41888432650478E-17
 [a.u.] -> [fs]                                             2.41888432650478E-02
 [a.u.] -> [J]                                              4.35974393937059E-18
 [a.u.] -> [N]                                              8.23872205491840E-08
 [a.u.] -> [K]                                              3.15774647902944E+05
 [a.u.] -> [kJ/mol]                                         2.62549961709828E+03
 [a.u.] -> [kcal/mol]                                       6.27509468713739E+02
 [a.u.] -> [Pa]                                             2.94210107994716E+13
 [a.u.] -> [bar]                                            2.94210107994716E+08
 [a.u.] -> [atm]                                            2.90362800883016E+08
 [a.u.] -> [eV]                                             2.72113838565563E+01
 [a.u.] -> [Hz]                                             6.57968392072181E+15
 [a.u.] -> [1/cm] (wave numbers)                            2.19474631370540E+05
 [a.u./Bohr**2] -> [1/cm]                                   5.14048714338585E+03
 

 CELL_TOP| Volume [angstrom^3]:                                      2744.000000
 CELL_TOP| Vector a [angstrom    14.000     0.000     0.000   |a| =    14.000000
 CELL_TOP| Vector b [angstrom     0.000    14.000     0.000   |b| =    14.000000
 CELL_TOP| Vector c [angstrom     0.000     0.000    14.000   |c| =    14.000000
 CELL_TOP| Angle (b,c), alpha [degree]:                                90.000000
 CELL_TOP| Angle (a,c), beta  [degree]:                                90.000000
 CELL_TOP| Angle (a,b), gamma [degree]:                                90.000000
 CELL_TOP| Numerically orthorhombic:                                         YES
 CELL_TOP| Periodicity                                                      NONE

 CELL| Volume [angstrom^3]:                                          2744.000000
 CELL| Vector a [angstrom]:      14.000     0.000     0.000   |a| =    14.000000
 CELL| Vector b [angstrom]:       0.000    14.000     0.000   |b| =    14.000000
 CELL| Vector c [angstrom]:       0.000     0.000    14.000   |c| =    14.000000
 CELL| Angle (b,c), alpha [degree]:                                    90.000000
 CELL| Angle (a,c), beta  [degree]:                                    90.000000
 CELL| Angle (a,b), gamma [degree]:                                    90.000000
 CELL| Numerically orthorhombic:                                             YES
 CELL| Periodicity                                                          NONE

 CELL_REF| Volume [angstrom^3]:                                      2744.000000
 CELL_REF| Vector a [angstrom    14.000     0.000     0.000   |a| =    14.000000
 CELL_REF| Vector b [angstrom     0.000    14.000     0.000   |b| =    14.000000
 CELL_REF| Vector c [angstrom     0.000     0.000    14.000   |c| =    14.000000
 CELL_REF| Angle (b,c), alpha [degree]:                                90.000000
 CELL_REF| Angle (a,c), beta  [degree]:                                90.000000
 CELL_REF| Angle (a,b), gamma [degree]:                                90.000000
 CELL_REF| Numerically orthorhombic:                                         YES
 CELL_REF| Periodicity                                                      NONE

 *******************************************************************************
 *******************************************************************************
 **                                                                           **
 **     #####                         ##              ##                      **
 **    ##   ##            ##          ##              ##                      **
 **   ##     ##                       ##            ######                    **
 **   ##     ##  ##   ##  ##   #####  ##  ##   ####   ##    #####    #####    **
 **   ##     ##  ##   ##  ##  ##      ## ##   ##      ##   ##   ##  ##   ##   **
 **   ##  ## ##  ##   ##  ##  ##      ####     ###    ##   ######   ######    **
 **    ##  ###   ##   ##  ##  ##      ## ##      ##   ##   ##       ##        **
 **     #######   #####   ##   #####  ##  ##  ####    ##    #####   ##        **
 **           ##                                                    ##        **
 **                                                                           **
 **                                                ... make the atoms dance   **
 **                                                                           **
 **            Copyright (C) by CP2K developers group (2000-2024)             **
 **                      J. Chem. Phys. 152, 194103 (2020)                    **
 **                                                                           **
 *******************************************************************************

 DFT| Spin restricted Kohn-Sham (RKS) calculation                            RKS
 DFT| Multiplicity                                                             1
 DFT| Number of spin states                                                    1
 DFT| Charge                                                                   0
 DFT| Self-interaction correction (SIC)                                       NO
 DFT| Cutoffs: density                                              1.000000E-10
 DFT|          gradient                                             1.000000E-10
 DFT|          tau                                                  1.000000E-10
 DFT|          cutoff_smoothing_range                               0.000000E+00
 DFT| XC density smoothing                                                  NONE
 DFT| XC derivatives                                                          PW

 FUNCTIONAL| PBE:
 FUNCTIONAL| J.P.Perdew, K.Burke, M.Ernzerhof, Phys. Rev. Letter, vol. 77, n 18,
 FUNCTIONAL|  pp. 3865-3868, (1996) {spin unpolarized}                          

 vdW POTENTIAL|                                                   Pair Potential
 vdW POTENTIAL|          DFT-D3 (Version 3.1)
 vdW POTENTIAL|          Potential Form: S. Grimme et al, JCP 132: 154104 (2010)
 vdW POTENTIAL|          Zero Damping
 vdW POTENTIAL|          Cutoff Radius [Bohr]:                             37.79
 vdW POTENTIAL|          s6 Scaling Factor:                               1.0000
 vdW POTENTIAL|          sr6 Scaling Factor:                              1.2170
 vdW POTENTIAL|          s8 Scaling Factor:                               0.7220
 vdW POTENTIAL|          Cutoff for CN calculation:                   0.1000E-05

 QS| Method:                                                                 GPW
 QS| Density plane wave grid type                        NON-SPHERICAL FULLSPACE
 QS| Number of grid levels:                                                    4
 QS| Density cutoff [a.u.]:                                                400.0
 QS| Multi grid cutoff [a.u.]: 1) grid level                               400.0
 QS|                           2) grid level                               133.3
 QS|                           3) grid level                                44.4
 QS|                           4) grid level                                14.8
 QS| Grid level progression factor:                                          3.0
 QS| Relative density cutoff [a.u.]:                                        30.0
 QS| Interaction thresholds: eps_pgf_orb:                                1.0E-15
 QS|                         eps_filter_matrix:                          0.0E+00
 QS|                         eps_core_charge:                            1.0E-32
 QS|                         eps_rho_gspace:                             1.0E-30
 QS|                         eps_rho_rspace:                             1.0E-30
 QS|                         eps_gvg_rspace:                             1.0E-15
 QS|                         eps_ppl:                                    1.0E-02
 QS|                         eps_ppnl:                                   1.0E-17


 ATOMIC KIND INFORMATION

  1. Atomic kind: n                                     Number of atoms:       2

     Orbital Basis Set                                           TZVP-MOLOPT-GTH

       Number of orbital shell sets:                                           1
       Number of orbital shells:                                               7
       Number of primitive Cartesian functions:                                7
       Number of Cartesian basis functions:                                   18
       Number of spherical basis functions:                                   17
       Norm type:                                                              2

       Normalised Cartesian orbitals:

                        Set   Shell   Orbital            Exponent    Coefficient

                          1       1    2s                9.042730      -0.237404
                                                         3.882225      -0.265910
                                                         1.512880       0.102064
                                                         0.586631       0.295369
                                                         0.222851       0.088647
                                                         0.084583       0.003860
                                                         0.039194       0.000722

                          1       2    3s                9.042730       0.259152
                                                         3.882225       0.251432
                                                         1.512880      -0.043896
                                                         0.586631      -0.328079
                                                         0.222851       0.175857
                                                         0.084583       0.069169
                                                         0.039194       0.004207

                          1       3    4s                9.042730       0.330627
                                                         3.882225       0.738242
                                                         1.512880      -0.570149
                                                         0.586631       0.474918
                                                         0.222851       0.192885
                                                         0.084583      -0.214824
                                                         0.039194       0.031577

                          1       4    3px               9.042730       0.822162
                                                         3.882225       0.990771
                                                         1.512880       0.665657
                                                         0.586631       0.321705
                                                         0.222851       0.063706
                                                         0.084583       0.004155
                                                         0.039194      -0.000005
                          1       4    3py               9.042730       0.822162
                                                         3.882225       0.990771
                                                         1.512880       0.665657
                                                         0.586631       0.321705
                                                         0.222851       0.063706
                                                         0.084583       0.004155
                                                         0.039194      -0.000005
                          1       4    3pz               9.042730       0.822162
                                                         3.882225       0.990771
                                                         1.512880       0.665657
                                                         0.586631       0.321705
                                                         0.222851       0.063706
                                                         0.084583       0.004155
                                                         0.039194      -0.000005

                          1       5    4px               9.042730      -0.251449
                                                         3.882225      -0.215479
                                                         1.512880      -0.200519
                                                         0.586631      -0.125283
                                                         0.222851       0.136219
                                                         0.084583       0.034362
                                                         0.039194       0.000879
                          1       5    4py               9.042730      -0.251449
                                                         3.882225      -0.215479
                                                         1.512880      -0.200519
                                                         0.586631      -0.125283
                                                         0.222851       0.136219
                                                         0.084583       0.034362
                                                         0.039194       0.000879
                          1       5    4pz               9.042730      -0.251449
                                                         3.882225      -0.215479
                                                         1.512880      -0.200519
                                                         0.586631      -0.125283
                                                         0.222851       0.136219
                                                         0.084583       0.034362
                                                         0.039194       0.000879

                          1       6    5px               9.042730      -1.546561
                                                         3.882225       0.742834
                                                         1.512880      -1.783177
                                                         0.586631       0.969458
                                                         0.222851       0.077327
                                                         0.084583      -0.117711
                                                         0.039194       0.027593
                          1       6    5py               9.042730      -1.546561
                                                         3.882225       0.742834
                                                         1.512880      -1.783177
                                                         0.586631       0.969458
                                                         0.222851       0.077327
                                                         0.084583      -0.117711
                                                         0.039194       0.027593
                          1       6    5pz               9.042730      -1.546561
                                                         3.882225       0.742834
                                                         1.512880      -1.783177
                                                         0.586631       0.969458
                                                         0.222851       0.077327
                                                         0.084583      -0.117711
                                                         0.039194       0.027593

                          1       7    4dx2              9.042730       1.099742
                                                         3.882225       0.532064
                                                         1.512880       0.873643
                                                         0.586631       0.456348
                                                         0.222851       0.017840
                                                         0.084583      -0.000857
                                                         0.039194      -0.000086
                          1       7    4dxy              9.042730       1.904809
                                                         3.882225       0.921562
                                                         1.512880       1.513195
                                                         0.586631       0.790419
                                                         0.222851       0.030900
                                                         0.084583      -0.001484
                                                         0.039194      -0.000150
                          1       7    4dxz              9.042730       1.904809
                                                         3.882225       0.921562
                                                         1.512880       1.513195
                                                         0.586631       0.790419
                                                         0.222851       0.030900
                                                         0.084583      -0.001484
                                                         0.039194      -0.000150
                          1       7    4dy2              9.042730       1.099742
                                                         3.882225       0.532064
                                                         1.512880       0.873643
                                                         0.586631       0.456348
                                                         0.222851       0.017840
                                                         0.084583      -0.000857
                                                         0.039194      -0.000086
                          1       7    4dyz              9.042730       1.904809
                                                         3.882225       0.921562
                                                         1.512880       1.513195
                                                         0.586631       0.790419
                                                         0.222851       0.030900
                                                         0.084583      -0.001484
                                                         0.039194      -0.000150
                          1       7    4dz2              9.042730       1.099742
                                                         3.882225       0.532064
                                                         1.512880       0.873643
                                                         0.586631       0.456348
                                                         0.222851       0.017840
                                                         0.084583      -0.000857
                                                         0.039194      -0.000086

       Atomic covalent radius [Angstrom]:                                  0.750

       Atomic van der Waals radius [Angstrom]:                             1.550

     GTH Potential information for                                    GTH-PBE-q5

       Description:                       Goedecker-Teter-Hutter pseudopotential
                                           Goedecker et al., PRB 54, 1703 (1996)
                                          Hartwigsen et al., PRB 58, 3641 (1998)
                                                      Krack, TCA 114, 145 (2005)

       Gaussian exponent of the core charge distribution:               6.208322
       Electronic configuration (s p d ...):                               2   3

       Parameters of the local part of the GTH pseudopotential:

                          rloc        C1          C2          C3          C4
                        0.283791  -12.415226    1.868096

       Parameters of the non-local part of the GTH pseudopotential:

                   l      r(l)      h(i,j,l)

                   0    0.255405   13.630263
                   1    0.245495

  2. Atomic kind: c                                     Number of atoms:       4

     Orbital Basis Set                                           TZVP-MOLOPT-GTH

       Number of orbital shell sets:                                           1
       Number of orbital shells:                                               7
       Number of primitive Cartesian functions:                                7
       Number of Cartesian basis functions:                                   18
       Number of spherical basis functions:                                   17
       Norm type:                                                              2

       Normalised Cartesian orbitals:

                        Set   Shell   Orbital            Exponent    Coefficient

                          1       1    2s                6.132625      -0.263661
                                                         2.625196      -0.231112
                                                         1.045457       0.042712
                                                         0.478316       0.306085
                                                         0.178617       0.065483
                                                         0.075145       0.000568
                                                         0.030287       0.000417

                          1       2    3s                6.132625       0.131937
                                                         2.625196       0.414269
                                                         1.045457      -0.593590
                                                         0.478316       0.644922
                                                         0.178617       0.069203
                                                         0.075145      -0.145101
                                                         0.030287       0.008247

                          1       3    4s                6.132625      -1.009391
                                                         2.625196      -0.608763
                                                         1.045457      -0.320627
                                                         0.478316       1.417678
                                                         0.178617      -0.917862
                                                         0.075145       0.286664
                                                         0.030287      -0.031483

                          1       4    3px               6.132625       0.562677
                                                         2.625196       0.633910
                                                         1.045457       0.379157
                                                         0.478316       0.235193
                                                         0.178617       0.052379
                                                         0.075145       0.003677
                                                         0.030287       0.000105
                          1       4    3py               6.132625       0.562677
                                                         2.625196       0.633910
                                                         1.045457       0.379157
                                                         0.478316       0.235193
                                                         0.178617       0.052379
                                                         0.075145       0.003677
                                                         0.030287       0.000105
                          1       4    3pz               6.132625       0.562677
                                                         2.625196       0.633910
                                                         1.045457       0.379157
                                                         0.478316       0.235193
                                                         0.178617       0.052379
                                                         0.075145       0.003677
                                                         0.030287       0.000105

                          1       5    4px               6.132625      -0.472364
                                                         2.625196      -0.221326
                                                         1.045457      -0.481781
                                                         0.478316       0.135466
                                                         0.178617       0.072281
                                                         0.075145       0.024920
                                                         0.030287       0.002706
                          1       5    4py               6.132625      -0.472364
                                                         2.625196      -0.221326
                                                         1.045457      -0.481781
                                                         0.478316       0.135466
                                                         0.178617       0.072281
                                                         0.075145       0.024920
                                                         0.030287       0.002706
                          1       5    4pz               6.132625      -0.472364
                                                         2.625196      -0.221326
                                                         1.045457      -0.481781
                                                         0.478316       0.135466
                                                         0.178617       0.072281
                                                         0.075145       0.024920
                                                         0.030287       0.002706

                          1       6    5px               6.132625      -0.321125
                                                         2.625196      -0.513960
                                                         1.045457      -0.659092
                                                         0.478316       1.236398
                                                         0.178617      -0.279443
                                                         0.075145       0.042466
                                                         0.030287      -0.008547
                          1       6    5py               6.132625      -0.321125
                                                         2.625196      -0.513960
                                                         1.045457      -0.659092
                                                         0.478316       1.236398
                                                         0.178617      -0.279443
                                                         0.075145       0.042466
                                                         0.030287      -0.008547
                          1       6    5pz               6.132625      -0.321125
                                                         2.625196      -0.513960
                                                         1.045457      -0.659092
                                                         0.478316       1.236398
                                                         0.178617      -0.279443
                                                         0.075145       0.042466
                                                         0.030287      -0.008547

                          1       7    4dx2              6.132625       0.874783
                                                         2.625196       0.375772
                                                         1.045457       0.653959
                                                         0.478316       0.191007
                                                         0.178617       0.018656
                                                         0.075145       0.003649
                                                         0.030287      -0.000011
                          1       7    4dxy              6.132625       1.515169
                                                         2.625196       0.650856
                                                         1.045457       1.132690
                                                         0.478316       0.330834
                                                         0.178617       0.032314
                                                         0.075145       0.006321
                                                         0.030287      -0.000019
                          1       7    4dxz              6.132625       1.515169
                                                         2.625196       0.650856
                                                         1.045457       1.132690
                                                         0.478316       0.330834
                                                         0.178617       0.032314
                                                         0.075145       0.006321
                                                         0.030287      -0.000019
                          1       7    4dy2              6.132625       0.874783
                                                         2.625196       0.375772
                                                         1.045457       0.653959
                                                         0.478316       0.191007
                                                         0.178617       0.018656
                                                         0.075145       0.003649
                                                         0.030287      -0.000011
                          1       7    4dyz              6.132625       1.515169
                                                         2.625196       0.650856
                                                         1.045457       1.132690
                                                         0.478316       0.330834
                                                         0.178617       0.032314
                                                         0.075145       0.006321
                                                         0.030287      -0.000019
                          1       7    4dz2              6.132625       0.874783
                                                         2.625196       0.375772
                                                         1.045457       0.653959
                                                         0.478316       0.191007
                                                         0.178617       0.018656
                                                         0.075145       0.003649
                                                         0.030287      -0.000011

       Atomic covalent radius [Angstrom]:                                  0.770

       Atomic van der Waals radius [Angstrom]:                             1.700

     GTH Potential information for                                    GTH-PBE-q4

       Description:                       Goedecker-Teter-Hutter pseudopotential
                                           Goedecker et al., PRB 54, 1703 (1996)
                                          Hartwigsen et al., PRB 58, 3641 (1998)
                                                      Krack, TCA 114, 145 (2005)

       Gaussian exponent of the core charge distribution:               4.364419
       Electronic configuration (s p d ...):                               2   2

       Parameters of the local part of the GTH pseudopotential:

                          rloc        C1          C2          C3          C4
                        0.338471   -8.803674    1.339211

       Parameters of the non-local part of the GTH pseudopotential:

                   l      r(l)      h(i,j,l)

                   0    0.302576    9.622487
                   1    0.291507

  3. Atomic kind: h                                     Number of atoms:       4

     Orbital Basis Set                                           TZVP-MOLOPT-GTH

       Number of orbital shell sets:                                           1
       Number of orbital shells:                                               4
       Number of primitive Cartesian functions:                                7
       Number of Cartesian basis functions:                                    6
       Number of spherical basis functions:                                    6
       Norm type:                                                              2

       Normalised Cartesian orbitals:

                        Set   Shell   Orbital            Exponent    Coefficient

                          1       1    2s               11.478000       0.129129
                                                         3.700759       0.177012
                                                         1.446884       0.141285
                                                         0.716815       0.245670
                                                         0.247919       0.094768
                                                         0.066918       0.004062
                                                         0.021708      -0.000053

                          1       2    3s               11.478000      -0.079256
                                                         3.700759      -0.152992
                                                         1.446884       0.015066
                                                         0.716815      -0.331234
                                                         0.247919       0.210690
                                                         0.066918       0.058630
                                                         0.021708      -0.003429

                          1       3    4s               11.478000      -0.246880
                                                         3.700759       0.023016
                                                         1.446884      -1.109374
                                                         0.716815       1.524652
                                                         0.247919      -0.227968
                                                         0.066918      -0.037343
                                                         0.021708       0.005696

                          1       4    3px              11.478000       0.325290
                                                         3.700759       0.187466
                                                         1.446884       0.443300
                                                         0.716815       0.267738
                                                         0.247919       0.088285
                                                         0.066918       0.019092
                                                         0.021708       0.000629
                          1       4    3py              11.478000       0.325290
                                                         3.700759       0.187466
                                                         1.446884       0.443300
                                                         0.716815       0.267738
                                                         0.247919       0.088285
                                                         0.066918       0.019092
                                                         0.021708       0.000629
                          1       4    3pz              11.478000       0.325290
                                                         3.700759       0.187466
                                                         1.446884       0.443300
                                                         0.716815       0.267738
                                                         0.247919       0.088285
                                                         0.066918       0.019092
                                                         0.021708       0.000629

       Atomic covalent radius [Angstrom]:                                  0.320

       Atomic van der Waals radius [Angstrom]:                             1.090

     GTH Potential information for                                    GTH-PBE-q1

       Description:                       Goedecker-Teter-Hutter pseudopotential
                                           Goedecker et al., PRB 54, 1703 (1996)
                                          Hartwigsen et al., PRB 58, 3641 (1998)
                                                      Krack, TCA 114, 145 (2005)

       Gaussian exponent of the core charge distribution:              12.500000
       Electronic configuration (s p d ...):                                   1

       Parameters of the local part of the GTH pseudopotential:

                          rloc        C1          C2          C3          C4
                        0.200000   -4.178900    0.724463


 MOLECULE KIND INFORMATION


 All atoms are their own molecule, skipping detailed information


 TOTAL NUMBERS AND MAXIMUM NUMBERS

  Total number of            - Atomic kinds:                                   3
                             - Atoms:                                         10
                             - Shell sets:                                    10
                             - Shells:                                        58
                             - Primitive Cartesian functions:                 70
                             - Cartesian basis functions:                    132
                             - Spherical basis functions:                    126

  Maximum angular momentum of- Orbital basis functions:                        2
                             - Local part of the GTH pseudopotential:          2
                             - Non-local part of the GTH pseudopotential:      0


 MODULE QUICKSTEP: ATOMIC COORDINATES IN ANGSTROM

   Atom Kind Element         X             Y             Z       Z(eff)     Mass
      1    1 n     7      7.000000      8.230366      7.699281   5.0000  14.0067
      2    1 n     7      7.000000      5.769634      6.300719   5.0000  14.0067
      3    2 c     6      7.000000      7.046736      8.332568   4.0000  12.0107
      4    2 c     6      7.000000      5.831270      7.641733   4.0000  12.0107
      5    2 c     6      7.000000      8.168730      6.358267   4.0000  12.0107
      6    2 c     6      7.000000      6.953264      5.667432   4.0000  12.0107
      7    3 h     1      7.000000      7.069583      9.425777   1.0000   1.0079
      8    3 h     1      7.000000      4.880319      8.181501   1.0000   1.0079
      9    3 h     1      7.000000      9.119681      5.818499   1.0000   1.0079
     10    3 h     1      7.000000      6.930417      4.574223   1.0000   1.0079



 SCF PARAMETERS         Density guess:                                   RESTART
                        --------------------------------------------------------
                        max_scf:                                              10
                        max_scf_history:                                       0
                        max_diis:                                              4
                        --------------------------------------------------------
                        eps_scf:                                        1.00E-08
                        eps_scf_history:                                0.00E+00
                        eps_diis:                                       1.00E-01
                        eps_eigval:                                     1.00E-05
                        --------------------------------------------------------
                        level_shift [a.u.]:                             0.000000
                        --------------------------------------------------------
                        Outer loop SCF in use 
                        No variables optimised in outer loop
                        eps_scf                                         1.00E-08
                        max_scf                                              900
                        No outer loop optimization
                        step_size                                       5.00E-01

 PW_GRID| Information for grid number                                          1
 PW_GRID| Grid distributed over                                    16 processors
 PW_GRID| Real space group dimensions                                    16    1
 PW_GRID| the grid is blocked:                                                NO
 PW_GRID| Cutoff [a.u.]                                                    800.0
 PW_GRID| spherical cutoff:                                                   NO
 PW_GRID|   Bounds   1           -180     179                Points:         360
 PW_GRID|   Bounds   2           -180     179                Points:         360
 PW_GRID|   Bounds   3           -180     179                Points:         360
 PW_GRID| Volume element (a.u.^3)  0.3969E-03     Volume (a.u.^3)     18517.4301
 PW_GRID| Grid span                                                    FULLSPACE
 PW_GRID|   Distribution                         Average         Max         Min
 PW_GRID|   G-Vectors                          2916000.0     2916000     2916000
 PW_GRID|   G-Rays                                8100.0        8100        8100
 PW_GRID|   Real Space Points                  2916000.0     2980800     2851200

 PW_GRID| Information for grid number                                          2
 PW_GRID| Number of the reference grid                                         1
 PW_GRID| Grid distributed over                                    16 processors
 PW_GRID| Real space group dimensions                                    16    1
 PW_GRID| the grid is blocked:                                                NO
 PW_GRID| Cutoff [a.u.]                                                    400.0
 PW_GRID| spherical cutoff:                                                   NO
 PW_GRID|   Bounds   1           -120     119                Points:         240
 PW_GRID|   Bounds   2           -120     119                Points:         240
 PW_GRID|   Bounds   3           -120     119                Points:         240
 PW_GRID| Volume element (a.u.^3)  0.1340E-02     Volume (a.u.^3)     18517.4301
 PW_GRID| Grid span                                                    FULLSPACE
 PW_GRID|   Distribution                         Average         Max         Min
 PW_GRID|   G-Vectors                           864000.0      864720      863520
 PW_GRID|   G-Rays                                3600.0        3603        3598
 PW_GRID|   Real Space Points                   864000.0      864000      864000

 PW_GRID| Information for grid number                                          3
 PW_GRID| Number of the reference grid                                         2
 PW_GRID| Grid distributed over                                    16 processors
 PW_GRID| Real space group dimensions                                    16    1
 PW_GRID| the grid is blocked:                                                NO
 PW_GRID| Cutoff [a.u.]                                                    133.3
 PW_GRID| spherical cutoff:                                                   NO
 PW_GRID|   Bounds   1            -72      71                Points:         144
 PW_GRID|   Bounds   2            -72      71                Points:         144
 PW_GRID|   Bounds   3            -72      71                Points:         144
 PW_GRID| Volume element (a.u.^3)  0.6201E-02     Volume (a.u.^3)     18517.4301
 PW_GRID| Grid span                                                    FULLSPACE
 PW_GRID|   Distribution                         Average         Max         Min
 PW_GRID|   G-Vectors                           186624.0      187056      186336
 PW_GRID|   G-Rays                                1296.0        1299        1294
 PW_GRID|   Real Space Points                   186624.0      186624      186624

 PW_GRID| Information for grid number                                          4
 PW_GRID| Number of the reference grid                                         2
 PW_GRID| Grid distributed over                                    16 processors
 PW_GRID| Real space group dimensions                                    16    1
 PW_GRID| the grid is blocked:                                                NO
 PW_GRID| Cutoff [a.u.]                                                     44.4
 PW_GRID| spherical cutoff:                                                   NO
 PW_GRID|   Bounds   1            -40      39                Points:          80
 PW_GRID|   Bounds   2            -40      39                Points:          80
 PW_GRID|   Bounds   3            -40      39                Points:          80
 PW_GRID| Volume element (a.u.^3)  0.3617E-01     Volume (a.u.^3)     18517.4301
 PW_GRID| Grid span                                                    FULLSPACE
 PW_GRID|   Distribution                         Average         Max         Min
 PW_GRID|   G-Vectors                            32000.0       32240       31840
 PW_GRID|   G-Rays                                 400.0         403         398
 PW_GRID|   Real Space Points                    32000.0       32000       32000

 PW_GRID| Information for grid number                                          5
 PW_GRID| Number of the reference grid                                         2
 PW_GRID| Grid distributed over                                    16 processors
 PW_GRID| Real space group dimensions                                    16    1
 PW_GRID| the grid is blocked:                                                NO
 PW_GRID| Cutoff [a.u.]                                                     14.8
 PW_GRID| spherical cutoff:                                                   NO
 PW_GRID|   Bounds   1            -22      22                Points:          45
 PW_GRID|   Bounds   2            -22      22                Points:          45
 PW_GRID|   Bounds   3            -22      22                Points:          45
 PW_GRID| Volume element (a.u.^3)  0.2032         Volume (a.u.^3)     18517.4301
 PW_GRID| Grid span                                                    FULLSPACE
 PW_GRID|   Distribution                         Average         Max         Min
 PW_GRID|   G-Vectors                             5695.3        5805        5625
 PW_GRID|   G-Rays                                 126.6         129         125
 PW_GRID|   Real Space Points                     5695.3        6075        4050

 POISSON| Solver                                          Martyna-Tuckerman (MT)
 POISSON| MT| Alpha                                                        7.000
 POISSON| MT| Relative cutoff                                                2.0
 POISSON| Periodicity                                                       NONE

 RS_GRID| Information for grid number                                          2
 RS_GRID|   Bounds   1           -120     119                Points:         240
 RS_GRID|   Bounds   2           -120     119                Points:         240
 RS_GRID|   Bounds   3           -120     119                Points:         240
 RS_GRID| Real space distribution over                                  4 groups
 RS_GRID| Real space distribution along direction                              2
 RS_GRID| Border size                                                         40
 RS_GRID| Real space distribution over                                  4 groups
 RS_GRID| Real space distribution along direction                              3
 RS_GRID| Border size                                                         40
 RS_GRID|   Distribution                         Average         Max         Min
 RS_GRID|   Planes                                 140.0         140         140
 RS_GRID|   Distribution                         Average         Max         Min
 RS_GRID|   Planes                                 140.0         140         140

 RS_GRID| Information for grid number                                          3
 RS_GRID|   Bounds   1            -72      71                Points:         144
 RS_GRID|   Bounds   2            -72      71                Points:         144
 RS_GRID|   Bounds   3            -72      71                Points:         144
 RS_GRID| Real space fully replicated
 RS_GRID| Group size                                                           1

 RS_GRID| Information for grid number                                          4
 RS_GRID|   Bounds   1            -40      39                Points:          80
 RS_GRID|   Bounds   2            -40      39                Points:          80
 RS_GRID|   Bounds   3            -40      39                Points:          80
 RS_GRID| Real space fully replicated
 RS_GRID| Group size                                                           1

 RS_GRID| Information for grid number                                          5
 RS_GRID|   Bounds   1            -22      22                Points:          45
 RS_GRID|   Bounds   2            -22      22                Points:          45
 RS_GRID|   Bounds   3            -22      22                Points:          45
 RS_GRID| Real space fully replicated
 RS_GRID| Group size                                                           1

 Number of electrons:                                                         30
 Number of occupied orbitals:                                                 15
 Number of molecular orbitals:                                                15

 Number of orbital functions:                                                126
 Number of independent orbital functions:                                    126

 Extrapolation method: initial_guess

 *** WARNING in qs_initial_guess.F:306 :: User requested to restart the    ***
 *** wavefunction from the file named: testsuite_ad-RESTART.wfn. This file ***
 *** does not exist. Please check the existence of the file or change      ***
 *** properly the value of the keyword WFN_RESTART_FILE_NAME. Calculation  ***
 *** continues using ATOMIC GUESS.                                         ***


 Atomic guess: The first density matrix is obtained in terms of atomic orbitals
               and electronic configurations assigned to each atomic kind

 Guess for atomic kind: n

 Electronic structure
    Total number of core electrons                                          2.00
    Total number of valence electrons                                       5.00
    Total number of electrons                                               7.00
    Multiplicity                                                   not specified
    S   [  2.00] 2.00
    P      3.00


 *******************************************************************************
                  Iteration          Convergence                     Energy [au]
 *******************************************************************************
                          1        0.286634                      -9.511206244233
                          2        0.226136                      -9.521008071593
                          3        0.334941E-02                  -9.546227953912
                          4        0.319255E-03                  -9.546232857587
                          5        0.231075E-05                  -9.546232901719
                          6        0.107038E-05                  -9.546232901721
                          7        0.383401E-08                  -9.546232901721

 Energy components [Hartree]           Total Energy ::           -9.546232901721
                                        Band Energy ::           -2.058537546162
                                     Kinetic Energy ::            6.757650655055
                                   Potential Energy ::          -16.303883556777
                                      Virial (-V/T) ::            2.412655579433
                                        Core Energy ::          -15.539824007853
                                          XC Energy ::           -2.162245692268
                                     Coulomb Energy ::            8.155836798399
                       Total Pseudopotential Energy ::          -22.334860094811
                       Local Pseudopotential Energy ::          -23.272667011764
                    Nonlocal Pseudopotential Energy ::            0.937806916952
                                        Confinement ::            0.373854319030

 Orbital energies  State     L     Occupation   Energy[a.u.]          Energy[eV]

                       1     0          2.000      -0.664192          -18.073575

                       1     1          3.000      -0.243385           -6.622835


 Total Electron Density at R=0:                                         0.000041

 Guess for atomic kind: c

 Electronic structure
    Total number of core electrons                                          2.00
    Total number of valence electrons                                       4.00
    Total number of electrons                                               6.00
    Multiplicity                                                   not specified
    S   [  2.00] 2.00
    P      2.00


 *******************************************************************************
                  Iteration          Convergence                     Energy [au]
 *******************************************************************************
                          1        0.106529                      -5.270272483724
                          2        0.700070E-01                  -5.275253796046
                          3        0.257977E-03                  -5.278907327451
                          4        0.489006E-04                  -5.278907347137
                          5        0.128506E-06                  -5.278907348859

 Energy components [Hartree]           Total Energy ::           -5.278907348859
                                        Band Energy ::           -1.297504853112
                                     Kinetic Energy ::            3.437573111169
                                   Potential Energy ::           -8.716480460029
                                      Virial (-V/T) ::            2.535649476576
                                        Core Energy ::           -8.301868323195
                                          XC Energy ::           -1.382083082551
                                     Coulomb Energy ::            4.405044056886
                       Total Pseudopotential Energy ::          -11.773288188248
                       Local Pseudopotential Energy ::          -12.379139771298
                    Nonlocal Pseudopotential Energy ::            0.605851583050
                                        Confinement ::            0.338467538844

 Orbital energies  State     L     Occupation   Energy[a.u.]          Energy[eV]

                       1     0          2.000      -0.478379          -13.017346

                       1     1          2.000      -0.170374           -4.636105


 Total Electron Density at R=0:                                         0.000341

 Guess for atomic kind: h

 Electronic structure
    Total number of core electrons                                          0.00
    Total number of valence electrons                                       1.00
    Total number of electrons                                               1.00
    Multiplicity                                                   not specified
    S      1.00


 *******************************************************************************
                  Iteration          Convergence                     Energy [au]
 *******************************************************************************
                          1        0.363633E-02                  -0.424359639014
                          2        0.457201E-03                  -0.424374328003
                          3        0.158035E-04                  -0.424374562686
                          4        0.544881E-08                  -0.424374562963

 Energy components [Hartree]           Total Energy ::           -0.424374562963
                                        Band Energy ::           -0.197817388557
                                     Kinetic Energy ::            0.463739149097
                                   Potential Energy ::           -0.888113712060
                                      Virial (-V/T) ::            1.915114809241
                                        Core Energy ::           -0.479953896523
                                          XC Energy ::           -0.245504363650
                                     Coulomb Energy ::            0.301083697210
                       Total Pseudopotential Energy ::           -0.962570132454
                       Local Pseudopotential Energy ::           -0.962570132454
                    Nonlocal Pseudopotential Energy ::            0.000000000000
                                        Confinement ::            0.188770868335

 Orbital energies  State     L     Occupation   Energy[a.u.]          Energy[eV]

                       1     0          1.000      -0.197817           -5.382885


 Total Electron Density at R=0:                                         0.235042
 Re-scaling the density matrix to get the right number of electrons
                  # Electrons              Trace(P)               Scaling factor
                           30                30.000                        1.000


 SCF WAVEFUNCTION OPTIMIZATION

  ----------------------------------- OT ---------------------------------------
  Minimizer      : DIIS                : direct inversion
                                         in the iterative subspace
                                         using   7 DIIS vectors
                                         safer DIIS on
  Preconditioner : FULL_ALL            : diagonalization, state selective
  Precond_solver : DEFAULT
  stepsize       :    0.15000000                  energy_gap     :    0.08000000
  eps_taylor     :   0.10000E-15                  max_taylor     :             4
  ----------------------------------- OT ---------------------------------------

  Step     Update method      Time    Convergence         Total energy    Change
  ------------------------------------------------------------------------------
     1 OT DIIS     0.15E+00    1.2     0.13519570       -42.4035378341 -4.24E+01
     2 OT DIIS     0.15E+00    1.1     0.14707262       -43.5401189282 -1.14E+00
     3 OT DIIS     0.15E+00    1.1     0.06023200       -44.6692195670 -1.13E+00
     4 OT DIIS     0.15E+00    1.1     0.03651708       -44.8861348005 -2.17E-01
     5 OT DIIS     0.15E+00    1.1     0.02307335       -44.9517525331 -6.56E-02
     6 OT DIIS     0.15E+00    1.1     0.01325703       -44.9810623373 -2.93E-02
     7 OT DIIS     0.15E+00    1.1     0.00877849       -44.9905139664 -9.45E-03
     8 OT DIIS     0.15E+00    1.1     0.00339475       -44.9940935958 -3.58E-03
     9 OT DIIS     0.15E+00    1.1     0.00196259       -44.9950254352 -9.32E-04
    10 OT DIIS     0.15E+00    1.1     0.00114323       -44.9953210624 -2.96E-04

  Leaving inner SCF loop after reaching    10 steps.


  Electronic density on regular grids:        -30.0000000000       -0.0000000000
  Core density on regular grids:               30.0000000000        0.0000000000
  Total charge density on r-space grids:       -0.0000000000
  Total charge density g-space grids:          -0.0000000000

  Overlap energy of the core charge distribution:               0.00000184549159
  Self energy of the core charge distribution:               -108.68316522202922
  Core Hamiltonian energy:                                     33.13654112726037
  Hartree energy:                                              43.93668046729975
  Exchange-correlation energy:                                -13.38314745605638
  Dispersion energy:                                           -0.00223182438932

  Total energy:                                               -44.99532106242323

  outer SCF iter =    1 RMS gradient =   0.11E-02 energy =        -44.9953210624

  ----------------------------------- OT ---------------------------------------
  Minimizer      : DIIS                : direct inversion
                                         in the iterative subspace
                                         using   7 DIIS vectors
                                         safer DIIS on
  Preconditioner : FULL_ALL            : diagonalization, state selective
  Precond_solver : DEFAULT
  stepsize       :    0.15000000                  energy_gap     :    0.08000000
  eps_taylor     :   0.10000E-15                  max_taylor     :             4
  ----------------------------------- OT ---------------------------------------

  Step     Update method      Time    Convergence         Total energy    Change
  ------------------------------------------------------------------------------
     1 OT DIIS     0.15E+00    2.1     0.00064853       -44.9954090384 -8.80E-05
     2 OT DIIS     0.15E+00    1.1     0.00070156       -44.9954292042 -2.02E-05
     3 OT DIIS     0.15E+00    1.1     0.00014712       -44.9954595971 -3.04E-05
     4 OT DIIS     0.15E+00    1.1     0.00005951       -44.9954629530 -3.36E-06
     5 OT DIIS     0.15E+00    1.1     0.00001126       -44.9954631963 -2.43E-07
     6 OT DIIS     0.15E+00    1.1     0.00000311       -44.9954632046 -8.35E-09
     7 OT DIIS     0.15E+00    1.1     0.00000061       -44.9954632055 -8.18E-10
     8 OT DIIS     0.15E+00    1.1     0.00000023       -44.9954632055 -4.56E-11
     9 OT DIIS     0.15E+00    1.1     0.00000008       -44.9954632055 -5.44E-12
    10 OT DIIS     0.15E+00    1.1     0.00000002       -44.9954632055 -5.33E-13

  Leaving inner SCF loop after reaching    10 steps.


  Electronic density on regular grids:        -30.0000000000       -0.0000000000
  Core density on regular grids:               30.0000000000        0.0000000000
  Total charge density on r-space grids:       -0.0000000000
  Total charge density g-space grids:          -0.0000000000

  Overlap energy of the core charge distribution:               0.00000184549159
  Self energy of the core charge distribution:               -108.68316522202922
  Core Hamiltonian energy:                                     33.13836251571339
  Hartree energy:                                              43.93506049896765
  Exchange-correlation energy:                                -13.38349101925962
  Dispersion energy:                                           -0.00223182438932

  Total energy:                                               -44.99546320550554

  outer SCF iter =    2 RMS gradient =   0.20E-07 energy =        -44.9954632055

  ----------------------------------- OT ---------------------------------------
  Minimizer      : DIIS                : direct inversion
                                         in the iterative subspace
                                         using   7 DIIS vectors
                                         safer DIIS on
  Preconditioner : FULL_ALL            : diagonalization, state selective
  Precond_solver : DEFAULT
  stepsize       :    0.15000000                  energy_gap     :    0.08000000
  eps_taylor     :   0.10000E-15                  max_taylor     :             4
  ----------------------------------- OT ---------------------------------------

  Step     Update method      Time    Convergence         Total energy    Change
  ------------------------------------------------------------------------------
     1 OT DIIS     0.15E+00    2.1     0.00000002       -44.9954632055  0.00E+00
     2 OT DIIS     0.15E+00    1.1     0.00000002       -44.9954632055  2.13E-14
     3 OT DIIS     0.15E+00    1.0     1.5665E-09       -44.9954632055 -1.42E-14

  *** SCF run converged in     3 steps ***


  Electronic density on regular grids:        -30.0000000000       -0.0000000000
  Core density on regular grids:               30.0000000000        0.0000000000
  Total charge density on r-space grids:       -0.0000000000
  Total charge density g-space grids:          -0.0000000000

  Overlap energy of the core charge distribution:               0.00000184549159
  Self energy of the core charge distribution:               -108.68316522202922
  Core Hamiltonian energy:                                     33.13836226630322
  Hartree energy:                                              43.93506070076850
  Exchange-correlation energy:                                -13.38349097165029
  Dispersion energy:                                           -0.00223182438932

  Total energy:                                               -44.99546320550553

  outer SCF iter =    3 RMS gradient =   0.16E-08 energy =        -44.9954632055
  outer SCF loop converged in   3 iterations or   23 steps


 !-----------------------------------------------------------------------------!
                     Mulliken Population Analysis

 #  Atom  Element  Kind  Atomic population                           Net charge
       1     n        1          5.159111                             -0.159111
       2     n        1          5.159111                             -0.159111
       3     c        2          3.999610                              0.000390
       4     c        2          3.999631                              0.000369
       5     c        2          3.999631                              0.000369
       6     c        2          3.999610                              0.000390
       7     h        3          0.920821                              0.079179
       8     h        3          0.920827                              0.079173
       9     h        3          0.920827                              0.079173
      10     h        3          0.920821                              0.079179
 # Total charge                             30.000000                 -0.000000

 !-----------------------------------------------------------------------------!

 !-----------------------------------------------------------------------------!
                           Hirshfeld Charges

  #Atom  Element  Kind  Ref Charge     Population                    Net charge
      1       n      1       5.000          5.318                        -0.318
      2       n      1       5.000          5.318                        -0.318
      3       c      2       4.000          4.289                        -0.289
      4       c      2       4.000          4.289                        -0.289
      5       c      2       4.000          4.289                        -0.289
      6       c      2       4.000          4.289                        -0.289
      7       h      3       1.000          0.549                         0.451
      8       h      3       1.000          0.549                         0.451
      9       h      3       1.000          0.549                         0.451
     10       h      3       1.000          0.549                         0.451

  Total Charge                                                            0.014
 !-----------------------------------------------------------------------------!

 *******************************************************************************
 **                                                                           **
 **         ######## #######   #######   ######## #######  ########           **
 **            ##    ##     ## ##     ## ##       ##   ##     ##              **
 **            ##    ##     ## ##     ## ######   #######     ##              **
 **            ##    ##     ## ##     ## ##       ##          ##              **
 **            ##    #######   #######   ##       ##          ##              **
 **                                                                           **
 *******************************************************************************
 KERNEL|                                                                    sTDA
 KERNEL| Coulomb term uses Ewald summation
 KERNEL| Exact exchange term                                                  NO
 KERNEL| Transition density filter                                     0.100E-09
 KERNEL| Spin symmetry of excitations                                    Singlet
 TDDFPT| Number of states calculated                                          10
 TDDFPT| Number of Davidson iterations                                       100
 TDDFPT| Davidson iteration convergence                                0.367E-08
 TDDFPT| Max. number of Krylov space vectors                                  20
 TDDFPT| Molecular Orbitals:        Spin       AOs       Occ      Virt     Total
 TDDFPT|                               1       126        15       111       126
 sTDA| Exchange term is not used!
 sTDA| HFX Fraction                                                       0.0000
 sTDA| Mataga-Nishimoto exponent (C)                                      1.4200
 sTDA| Mataga-Nishimoto exponent (X)                                      0.2000
 sTDA| TD matrix filter                                           0.10000000E-09
 
 -------------------------------------------------------------------------------
 -                             Create Matrix SQRT(S)                           -
 -------------------------------------------------------------------------------

     Lanczos converged:  F threshold:   0.100E-03
     Est. extremal eigenvalues:    0.680E+01   0.203E-02
     Est. condition number :    0.335E+04

 Order=           3
     NS sqrt iter    1 1.00000000   0.168E+01       0.003      166.244
     NS sqrt iter    2 1.00000000   0.107E+01       0.002      422.447
     NS sqrt iter    3 1.00000000   0.607E+00       0.002      427.965
     NS sqrt iter    4 1.00000000   0.324E+00       0.002      428.460
     NS sqrt iter    5 1.00000000   0.206E+00       0.002      432.983
     NS sqrt iter    6 1.00000000   0.113E+00       0.002      425.258
     NS sqrt iter    7 1.00000000   0.401E-01       0.002      428.922
     NS sqrt iter    8 1.00000000   0.300E-02       0.002      432.640
     NS sqrt iter    9 1.00000000   0.153E-05       0.002      332.663
     Symmetrizing Results
     Final NS sqrt iter    9 1.00000000   0.820E-11


 EWALD| Summation is done by:                                               SPME
 EWALD| Alpha parameter [       ANGSTROM^-1]                              1.8897
 EWALD| Real Space Cutoff [          ANGSTROM]                            1.7854
 EWALD| G-space max. Miller index                         81        81        81
 EWALD| Spline interpolation order                                             6

 PW_GRID| Information for grid number                                          6
 PW_GRID| Grid distributed over                                    16 processors
 PW_GRID| Real space group dimensions                                    16    1
 PW_GRID| the grid is blocked:                                                NO
 PW_GRID| Cutoff [a.u.]                                                     45.1
 PW_GRID| spherical cutoff:                                                  YES
 PW_GRID| Grid points within cutoff                                       133866
 PW_GRID|   Bounds   1            -40      40                Points:          81
 PW_GRID|   Bounds   2            -40      40                Points:          81
 PW_GRID|   Bounds   3            -40      40                Points:          81
[...]
 flops    15 x    15 x    15               965250       0.0%    100.0%      0.0%
 flops     6 x    15 x    29              1179720       0.0%    100.0%      0.0%
 flops    23 x    15 x    15              1221300       0.0%    100.0%      0.0%
 flops     6 x    15 x    34              1383120       0.0%    100.0%      0.0%
 flops    29 x    15 x    15              1539900       0.0%    100.0%      0.0%
 flops    34 x    15 x    15              1805400       0.0%    100.0%      0.0%
 flops    17 x    15 x    15              1805400       0.0%    100.0%      0.0%
 flops    15 x    15 x    29              2479500       0.0%    100.0%      0.0%
 flops    15 x    15 x    34              2907000       0.0%    100.0%      0.0%
 flops     6 x    15 x     6              3144960       0.0%    100.0%      0.0%
 flops    17 x    32 x    17              3995136       0.0%    100.0%      0.0%
 flops     6 x     6 x    17              3995136       0.0%    100.0%      0.0%
 flops     6 x    17 x     6              4024512       0.0%    100.0%      0.0%
 flops    17 x     6 x     6              4024512       0.0%    100.0%      0.0%
 flops    17 x    17 x    15              4369680       0.0%    100.0%      0.0%
 flops    23 x    15 x    29              4522260       0.0%    100.0%      0.0%
 flops    23 x    15 x    34              5301960       0.0%    100.0%      0.0%
 flops    29 x    15 x    29              5701980       0.0%    100.0%      0.0%
 flops    29 x    15 x    34              6685080       0.0%    100.0%      0.0%
 flops    34 x    15 x    29              6685080       0.0%    100.0%      0.0%
 flops    17 x    15 x    29              6685080       0.0%    100.0%      0.0%
 flops    34 x    15 x    34              7837680       0.0%    100.0%      0.0%
 flops    17 x    15 x    34              7837680       0.0%    100.0%      0.0%
 flops    17 x    15 x     6             13366080       0.0%    100.0%      0.0%
 flops     6 x    15 x    17             13366080       0.0%    100.0%      0.0%
 flops    17 x    17 x     6             16979328       0.0%    100.0%      0.0%
 flops    17 x     6 x    17             17062560       0.0%    100.0%      0.0%
 flops     6 x    17 x    17             17062560       0.0%    100.0%      0.0%
 flops    17 x    15 x    17             56805840       0.0%    100.0%      0.0%
 flops    17 x    17 x    17             72869616       0.0%    100.0%      0.0%
 flops inhomo. stacks                           0       0.0%      0.0%      0.0%
 flops total                       303.004854E+06       0.0%    100.0%      0.0%
 flops max/rank                     48.871192E+06       0.0%    100.0%      0.0%
 matmuls inhomo. stacks                         0       0.0%      0.0%      0.0%
 matmuls total                              58263       0.0%    100.0%      0.0%
 number of processed stacks                 23839       0.0%    100.0%      0.0%
 average stack size                                     0.0       2.4       0.0
 marketing flops                   319.271520E+06
 -------------------------------------------------------------------------------
 # multiplications                            715
 max memory usage/rank               1.138029E+09
 # max total images/rank                        1
 # max 3D layers                                1
 # MPI messages exchanged                   68640
 MPI messages size (bytes):
  total size                       172.217504E+06
  min size                           0.000000E+00
  max size                           9.248000E+03
  average size                       2.508996E+03
 MPI breakdown and total messages size (bytes):
             size <=      128               41904                        0
       128 < size <=     8192               22296                131175984
      8192 < size <=    32768                4440                 41041536
     32768 < size <=   131072                   0                        0
    131072 < size <=  4194304                   0                        0
   4194304 < size <= 16777216                   0                        0
  16777216 < size                               0                        0
 -------------------------------------------------------------------------------
 -                                                                             -
 -                      DBCSR MESSAGE PASSING PERFORMANCE                      -
 -                                                                             -
 -------------------------------------------------------------------------------
 ROUTINE             CALLS      AVE VOLUME [Bytes]
 MP_Bcast               39                     12.
 MP_Allreduce         3575                      8.
 MP_Alltoall          6470                   1569.
 MP_ISend            11428                   1410.
 MP_IRecv            11428                   1295.
 -------------------------------------------------------------------------------

 -------------------------------------------------------------------------------
 -                                                                             -
 -                                DBM STATISTICS                               -
 -                                                                             -
 -------------------------------------------------------------------------------
    M  x    N  x    K                                          COUNT     PERCENT
 -------------------------------------------------------------------------------

 -------------------------------------------------------------------------------
 -                                                                             -
 -                                GRID STATISTICS                              -
 -                                                                             -
 -------------------------------------------------------------------------------
 LP    KERNEL             BACKEND                              COUNT     PERCENT
 3     collocate ortho    CPU                                  27072      22.03%
 3     integrate ortho    CPU                                  25944      21.12%
 4     collocate ortho    CPU                                  24480      19.92%
 4     integrate ortho    CPU                                  23460      19.09%
 2     collocate ortho    CPU                                  10944       8.91%
 2     integrate ortho    CPU                                  10488       8.54%
 0     collocate general  CPU                                    320       0.26%
 0     integrate general  CPU                                    160       0.13%
 -------------------------------------------------------------------------------

 MEMORY| Estimated peak process memory [MiB]                                1086

 -------------------------------------------------------------------------------
 ----                             MULTIGRID INFO                            ----
 -------------------------------------------------------------------------------
 count for grid        1:         327415          cutoff [a.u.]          400.00
 count for grid        2:         307165          cutoff [a.u.]          133.33
 count for grid        3:         202163          cutoff [a.u.]           44.44
 count for grid        4:         189989          cutoff [a.u.]           14.81
 total gridlevel count  :        1026732

 -------------------------------------------------------------------------------
 -                                                                             -
 -                         MESSAGE PASSING PERFORMANCE                         -
 -                                                                             -
 -------------------------------------------------------------------------------

 ROUTINE             CALLS      AVE VOLUME [Bytes]
 MP_Group                6
 MP_Bcast             1422                3806504.
 MP_Allreduce         2715                   1056.
 MP_Sync                49
 MP_Alltoall           518               29201233.
 MP_SendRecv          1080                 599197.
 MP_ISendRecv         1035                 599197.
 MP_Wait              3747
 MP_comm_split          44
 MP_ISend             2200                 867264.
 MP_IRecv             2382                 801000.
 -------------------------------------------------------------------------------


 -------------------------------------------------------------------------------
 -                                                                             -
 -                           R E F E R E N C E S                               -
 -                                                                             -
 -------------------------------------------------------------------------------
 
 CP2K version 2024.1 (Development Version), the CP2K developers group (2024).
 CP2K is freely available from https://www.cp2k.org/ .

 Kuehne,Thomas D.; Iannuzzi,Marcella; Del Ben,Mauro;
 Rybkin,Vladimir V.; Seewald,Patrick; Stein,Frederick; Laino,Teodoro;
 Khaliullin,Rustam Z.; Schuett,Ole; Schiffmann,Florian; Golze,Dorothea;
 Wilhelm,Jan; Chulkov,Sergey; Bani-Hashemian,Mohammad Hossein;
 Weber,Valery; Borstnik,Urban; Taillefumier,Mathieu;
 Jakobovits,Alice Shoshana; Lazzaro,Alfio; Pabst,Hans; Mueller,Tiziano;
 Schade,Robert; Guidon,Manuel; Andermatt,Samuel; Holmberg,Nico;
 Schenter,Gregory K.; Hehn,Anna; Bussy,Augustin; Belleflamme,Fabian;
 Tabacchi,Gloria; Gloess,Andreas; Lass,Michael; Bethune,Iain;
 Mundy,Christopher J.; Plessl,Christian; Watkins,Matt;
 VandeVondele,Joost; Krack,Matthias; Hutter,Juerg. 
 The Journal of Chemical Physics, 152 (19), (2020). 
 CP2K: An electronic structure and molecular dynamics software package -
 Quickstep: Efficient and accurate electronic structure calculations.
 https://doi.org/10.1063/5.0007045

 Goerigk, Lars; Hansen, Andreas; Bauer, Christoph; Ehrlich, Stephan;
 Najibi, Asim; Grimme, Stefan. , 19 (48), (2017). 
 A look at the density functional theory zoo with the advanced GMTKN55 database
 for general main group thermochemistry, kinetics and noncovalent interactions.
 https://doi.org/10.1039/C7CP04913G

 Grimme, S; Bannwarth, C. 
 The Journal of Chemical Physics, 145, 054103 (2016). 
 Ultra-fast computation of electronic spectra for large systems
 by tight-binding based simplified Tamm-Dancoff approximation (sTDA-xTB).
 https://doi.org/10.1063/1.4959605

 Schuett, Ole; Messmer, Peter; Hutter, Juerg; VandeVondele, Joost. 
 Electronic Structure Calculations on Graphics Processing Units, John
 Wiley & Sons, Ltd, 173-190 (2016). 
 GPU-Accelerated Sparse Matrix-Matrix Multiplication for
 Linear Scaling Density Functional Theory.
 https://doi.org/10.1002/9781118670712.ch8

 Heinecke, A; Henry, G; Hutchinson, M; Pabst, H. 
 Proceedings of Intl. Supercomputing Conference, 981-991 (2016). 
 LIBXSMM: Accelerating Small Matrix Multiplications
 by Runtime Code Generation.
 https://doi.org/10.1109/SC.2016.83

 Borstnik, U; VandeVondele, J; Weber, V; Hutter, J. 
 PARALLEL COMPUTING, 40 (5-6), 47-58 (2014). 
 Sparse matrix multiplication: The distributed block-compressed sparse
 row library.
 https://doi.org/10.1016/j.parco.2014.03.012

 Hutter, J; Iannuzzi, M; Schiffmann, F; VandeVondele, J. 
 WIREs Comput Mol Sci., 4 (1), 15-25 (2014). 
 CP2K: atomistic simulations of condensed matter systems.
 https://doi.org/10.1002/wcms.1159

 Grimme, S. The Journal of Chemical Physics, 138, 244104 (2013). 
 A simplified Tamm-Dancoff density functional approach for
 the electronic excitation spectra of very large molecules.
 https://doi.org/10.1063/1.4811331

 Grimme, S; Ehrlich, S; Goerigk, L. 
 JOURNAL OF COMPUTATIONAL CHEMISTRY, 32, 1456 (2011). 
 Effect of the damping function in dispersion corrected density functional theory.
 https://doi.org/10.1002/jcc.21759

 Grimme, S; Antony, J; Ehrlich, S; Krieg, H. 
 JOURNAL OF CHEMICAL PHYSICS, 132 (15), 154104 (2010). 
 A consistent and accurate ab initio parametrization of density
 functional dispersion correction (DFT-D) for the 94 elements H-Pu.
 https://doi.org/10.1063/1.3382344

 VandeVondele, J; Hutter, J. 
 JOURNAL OF CHEMICAL PHYSICS, 127 (11), 114105 (2007). 
 Gaussian basis sets for accurate calculations on molecular systems in
 gas and condensed phases.
 https://doi.org/10.1063/1.2770708

 Krack, M. 
 THEORETICAL CHEMISTRY ACCOUNTS, 114 (1-3), 145-152 (2005). 
 Pseudopotentials for H to Kr optimized for gradient-corrected
 exchange-correlation functionals.
 https://doi.org/10.1007/s00214-005-0655-y

 VandeVondele, J; Krack, M; Mohamed, F; Parrinello, M; Chassaing, T;
 Hutter, J. COMPUTER PHYSICS COMMUNICATIONS, 167 (2), 103-128 (2005). 
 QUICKSTEP: Fast and accurate density functional calculations using a
 mixed Gaussian and plane waves approach.
 https://doi.org/10.1016/j.cpc.2004.12.014

 Frigo, M; Johnson, SG. 
 PROCEEDINGS OF THE IEEE, 93 (2), 216-231 (2005). 
 The design and implementation of FFTW3.
 https://doi.org/10.1109/JPROC.2004.840301

 Iannuzzi, M; Chassaing, T; Wallman, T; Hutter, J. 
 CHIMIA, 59 (7-8), 499-503 (2005). 
 Ground and excited state density functional calculations with the
 Gaussian and augmented-plane-wave method.
 https://doi.org/10.2533/000942905777676164

 VandeVondele, J; Hutter, J. 
 JOURNAL OF CHEMICAL PHYSICS, 118 (10), 4365-4369 (2003). 
 An efficient orbital transformation method for electronic structure
 calculations.
 https://doi.org/10.1063/1.1543154

 Martin,Richard L.. 
 The Journal of Chemical Physics, 118 (11), 4775-4777 (2003). 
 Natural transition orbitals.
 https://doi.org/10.1063/1.1558471

 Martyna, GJ; Tuckerman, ME. 
 JOURNAL OF CHEMICAL PHYSICS, 110 (6), 2810-2821 (1999). 
 A reciprocal space based method for treating long range interactions in
 ab initio and force-field-based calculations in clusters.
 https://doi.org/10.1063/1.477923

 Hartwigsen, C; Goedecker, S; Hutter, J. 
 PHYSICAL REVIEW B, 58 (7), 3641-3662 (1998). 
 Relativistic separable dual-space Gaussian pseudopotentials from H to Rn.
 https://doi.org/10.1103/PhysRevB.58.3641

 Lippert, G; Hutter, J; Parrinello, M. 
 MOLECULAR PHYSICS, 92 (3), 477-487 (1997). 
 A hybrid Gaussian and plane wave density functional scheme.
 https://doi.org/10.1080/002689797170220

 Perdew, JP; Burke, K; Ernzerhof, M. 
 PHYSICAL REVIEW LETTERS, 77 (18), 3865-3868 (1996). 
 Generalized gradient approximation made simple.
 https://doi.org/10.1103/PhysRevLett.77.3865

 Goedecker, S; Teter, M; Hutter, J. 
 PHYSICAL REVIEW B, 54 (3), 1703-1710 (1996). 
 Separable dual-space Gaussian pseudopotentials.
 https://doi.org/10.1103/PhysRevB.54.1703


 -------------------------------------------------------------------------------
 -                                                                             -
 -                                T I M I N G                                  -
 -                                                                             -
 -------------------------------------------------------------------------------
 SUBROUTINE                       CALLS  ASD         SELF TIME        TOTAL TIME
                                MAXIMUM       AVERAGE  MAXIMUM  AVERAGE  MAXIMUM
 CP2K                                 1  1.0    0.057    0.062   28.400   28.400
 qs_energies                          1  2.0    0.001    0.001   26.224   26.224
 scf_env_do_scf                       1  3.0    0.000    0.000   24.856   24.856
 scf_env_do_scf_inner_loop           23  4.0    0.001    0.002   22.016   22.016
 qs_ks_update_qs_env                 26  5.0    0.000    0.000   19.027   19.028
 rebuild_ks_matrix                   23  6.0    0.000    0.000   19.025   19.026
 qs_ks_build_kohn_sham_matrix        23  7.0    0.003    0.003   19.025   19.026
 fft_wrap_pw1pw2                    459 10.4    0.007    0.008   13.464   14.626
 fft_wrap_pw1pw2_400                256 11.7    0.610    0.641   12.649   13.802
 qs_vxc_create                       23  8.0    0.000    0.001   12.279   12.340
 xc_vxc_pw_create                    23  9.0    0.167    0.184   12.278   12.340
 fft3d_ps                           459 12.4    5.191    5.504   10.011   11.157
 xc_pw_derive                       138 11.0    0.001    0.001    7.724    8.591
 xc_rho_set_and_dset_create          23 10.0    0.120    0.138    6.923    7.279
 xc_pw_divergence                    23 10.0    0.001    0.001    5.069    6.016
 qs_rho_update_rho_low               24  5.0    0.000    0.000    5.740    5.740
 calculate_rho_elec                  24  6.0    0.094    0.095    5.740    5.740
 sum_up_and_integrate                23  8.0    0.000    0.000    4.099    4.101
 density_rs2pw                       24  7.0    0.001    0.001    3.971    4.051
 integrate_v_rspace                  23  9.0    0.000    0.001    4.046    4.048
 xc_functional_eval                  23 11.0    0.000    0.000    2.728    3.060
 pbe_lda_eval                        23 12.0    2.728    3.060    2.728    3.060
 yz_to_x                            221 13.0    0.990    1.044    1.997    3.012
 mp_alltoall_z22v                   459 14.4    2.006    2.965    2.006    2.965
 potential_pw2rs                     23 10.0    0.006    0.006    2.905    2.908
 init_scf_loop                        3  4.0    0.000    0.000    2.840    2.840
 x_to_yz                            238 13.7    1.689    1.775    2.688    2.825
 grid_collocate_task_list            24  7.0    1.625    1.672    1.625    1.672
 transfer_pw2rs                     123 11.0    0.001    0.001    1.567    1.569
 transfer_rs2pw                     128  8.7    0.001    0.002    1.376    1.456
 pw_poisson_solve                    53  9.7    0.001    0.001    1.335    1.345
 pw_scatter_p                       238 12.7    1.168    1.219    1.168    1.219
 pw_gather_p                        221 12.0    1.137    1.169    1.137    1.169
 grid_integrate_task_list            23 10.0    1.020    1.135    1.020    1.135
 pw_derive                          297 11.8    1.055    1.098    1.055    1.098
 transfer_pw2rs_400                  24 11.8    0.419    0.428    0.949    0.969
 qs_init_subsys                       1  2.0    0.001    0.001    0.909    0.909
 transfer_rs2pw_400                  26  8.9    0.406    0.427    0.816    0.884
 create_qs_kind_set                   1  2.0    0.000    0.000    0.820    0.820
 read_qs_kind                         3  3.0    0.417    0.429    0.820    0.820
 mp_waitany                        2200 12.2    0.684    0.784    0.684    0.784
 qs_env_setup                         1  3.0    0.000    0.000    0.782    0.782
 qs_env_rebuild_pw_env                2  3.5    0.000    0.000    0.781    0.782
 pw_env_rebuild                       1  5.0    0.001    0.001    0.781    0.781
 pw_grid_setup                        6  6.2    0.000    0.000    0.761    0.761
 pw_grid_setup_internal               6  7.2    0.018    0.018    0.760    0.761
 pw_copy                            585 11.4    0.703    0.742    0.703    0.742
 pw_grid_sort                         6  8.2    0.464    0.468    0.631    0.634
 pw_poisson_set                      55 10.5    0.001    0.001    0.605    0.614
 -------------------------------------------------------------------------------

 The number of warnings for this run is : 1
 
 -------------------------------------------------------------------------------
  **** **** ******  **  PROGRAM ENDED AT                 2024-10-26 13:12:12.146
 ***** ** ***  *** **   PROGRAM RAN ON                               nesh-clk439
 **    ****   ******    PROGRAM RAN BY                                  suphc356
 ***** **    ** ** **   PROGRAM PROCESS ID                               1855939
  **** **  *******  **  PROGRAM STOPPED IN /gxfs_work/cau/suphc356/NEWTONX_proje
                                           ct/Pyrazin_molecule/CP2K_GPW_PBE_MOLO
                                           PT_TZVP_STDA/IC_TDDFT/JOB_AD
