 DBCSR| CPU Multiplication driver                                           XSMM (U)
 DBCSR| Multrec recursion limit                                              512 (U)
 DBCSR| Multiplication stack size                                           1000 (D)
 DBCSR| Maximum elements for images                                    UNLIMITED (U)
 DBCSR| Multiplicative factor virtual images                                   1 (U)
 DBCSR| Use multiplication densification                                       T (D)
 DBCSR| Multiplication size stacks                                             3 (U)
 DBCSR| Use memory pool for CPU allocation                                     F (U)
 DBCSR| Number of 3D layers                                               SINGLE (U)
 DBCSR| Use MPI memory allocation                                              F (U)
 DBCSR| Use RMA algorithm                                                      F (U)
 DBCSR| Use Communication thread                                               T (U)
 DBCSR| Communication thread load                                             87 (D)
 DBCSR| MPI: My process id                                                     0
 DBCSR| MPI: Number of processes                                              64
 DBCSR| OMP: Current number of threads                                         1
 DBCSR| OMP: Max number of threads                                             1
 DBCSR| Split modifier for TAS multiplication algorithm                  1.0E+00 (U)


  **** **** ******  **  PROGRAM STARTED AT               2025-03-11 08:58:21.655
 ***** ** ***  *** **   PROGRAM STARTED ON                           nesh-clk364
 **    ****   ******    PROGRAM STARTED BY                              suphc356
 ***** **    ** ** **   PROGRAM PROCESS ID                                545398
  **** **  *******  **  PROGRAM STARTED IN /gxfs_work/cau/suphc356/NEWTONX_proje
                                           ct/Pyrazin_crystal/plain_pyrazine/GPW
                                           _PBE_STDA/OD_couplings/OD_TDDFT_STDA_
                                           periodic/TRAJECTORIES_from_state_63_A
                                           GAIN/TRAJ13_nokross_noco/TEMP

 CP2K| version string:                 CP2K version 2024.1 (Development Version)
 CP2K| source code revision number:                                  git:990486a
 CP2K| cp2kflags: omp libint fftw3 libxc libgrpp parallel mpi_f08 scalapack cosm
 CP2K|            a xsmm spglib mkl
 CP2K| is freely available from                            https://www.cp2k.org/
 CP2K| Program compiled at                          Mon Mar 11 08:48:45 CET 2024
 CP2K| Program compiled on                                           nesh-login2
 CP2K| Program compiled for                                                local
 CP2K| Data directory path                 /gxfs_work/cau/suphc356/cp2k_gcc/data
 CP2K| Input file name                                                  cp2k.inp

 GLOBAL| Force Environment number                                              1
 GLOBAL| Basis set file name                                        BASIS_MOLOPT
 GLOBAL| Potential file name                                           POTENTIAL
 GLOBAL| MM Potential file name                                     MM_POTENTIAL
 GLOBAL| Coordinate file name                                      __STD_INPUT__
 GLOBAL| Method name                                                        CP2K
 GLOBAL| Project name                                               testsuite_ad
 GLOBAL| Run type                                                   ENERGY_FORCE
 GLOBAL| FFT library                                                       FFTW3
 GLOBAL| Diagonalization library                                       ScaLAPACK
 GLOBAL| DGEMM library                                                      BLAS
 GLOBAL| Orthonormality check for eigenvectors                          DISABLED
 GLOBAL| Matrix multiplication library                                     COSMA
 GLOBAL| All-to-all communication in single precision                          F
 GLOBAL| FFTs using library dependent lengths                                  F
 GLOBAL| Grid backend                                                       AUTO
 GLOBAL| Global print level                                               MEDIUM
 GLOBAL| MPI I/O enabled                                                       T
 GLOBAL| Total number of message passing processes                            64
 GLOBAL| Number of threads for this process                                    1
 GLOBAL| This output is from process                                           0
 GLOBAL| Stack size for threads created by OpenMP (OMP_STACKSIZE)           256M
 GLOBAL| CPU model name                Intel(R) Xeon(R) Gold 6226R CPU @ 2.90GHz
 GLOBAL| CPUID                                                              1003
 GLOBAL| Compiled for CPUID                                                    0

 *** HINT in environment.F:920 :: The compiler target flags (generic) used ***
 *** to build this binary cannot exploit all extensions of this CPU model  ***
 *** (x86_avx512). Consider compiler target flags as part of FCFLAGS and   ***
 *** CFLAGS (ARCH file).                                                   ***


 MEMORY| system memory details [Kb]
 MEMORY|                        rank 0           min           max       average
 MEMORY| MemTotal            196683180     196683180     196683224     196683202
 MEMORY| MemFree             163668672     163668672     164222684     163900859
 MEMORY| Buffers                544976        541080        544976        543028
 MEMORY| Cached                 754404        754404        925212        839805
 MEMORY| Slab                 13581936      13194168      13581936      13388053
 MEMORY| SReclaimable           189148        189148        215420        202284
 MEMORY| MemLikelyFree       165157200     165157200     165904372     165485976


 *** Fundamental physical constants (SI units) ***

 *** Literature: B. J. Mohr and B. N. Taylor,
 ***             CODATA recommended values of the fundamental physical
 ***             constants: 2006, Web Version 5.1
 ***             http://physics.nist.gov/constants

 Speed of light in vacuum [m/s]                             2.99792458000000E+08
 Magnetic constant or permeability of vacuum [N/A**2]       1.25663706143592E-06
 Electric constant or permittivity of vacuum [F/m]          8.85418781762039E-12
 Planck constant (h) [J*s]                                  6.62606896000000E-34
 Planck constant (h-bar) [J*s]                              1.05457162825177E-34
 Elementary charge [C]                                      1.60217648700000E-19
 Electron mass [kg]                                         9.10938215000000E-31
 Electron g factor [ ]                                     -2.00231930436220E+00
 Proton mass [kg]                                           1.67262163700000E-27
 Fine-structure constant                                    7.29735253760000E-03
 Rydberg constant [1/m]                                     1.09737315685270E+07
 Avogadro constant [1/mol]                                  6.02214179000000E+23
 Boltzmann constant [J/K]                                   1.38065040000000E-23
 Atomic mass unit [kg]                                      1.66053878200000E-27
 Bohr radius [m]                                            5.29177208590000E-11

 *** Conversion factors ***

 [u] -> [a.u.]                                              1.82288848426455E+03
 [Angstrom] -> [Bohr] = [a.u.]                              1.88972613288564E+00
 [a.u.] = [Bohr] -> [Angstrom]                              5.29177208590000E-01
 [a.u.] -> [s]                                              2.41888432650478E-17
 [a.u.] -> [fs]                                             2.41888432650478E-02
 [a.u.] -> [J]                                              4.35974393937059E-18
 [a.u.] -> [N]                                              8.23872205491840E-08
 [a.u.] -> [K]                                              3.15774647902944E+05
 [a.u.] -> [kJ/mol]                                         2.62549961709828E+03
 [a.u.] -> [kcal/mol]                                       6.27509468713739E+02
 [a.u.] -> [Pa]                                             2.94210107994716E+13
 [a.u.] -> [bar]                                            2.94210107994716E+08
 [a.u.] -> [atm]                                            2.90362800883016E+08
 [a.u.] -> [eV]                                             2.72113838565563E+01
 [a.u.] -> [Hz]                                             6.57968392072181E+15
 [a.u.] -> [1/cm] (wave numbers)                            2.19474631370540E+05
 [a.u./Bohr**2] -> [1/cm]                                   5.14048714338585E+03
 

 CELL_TOP| Volume [angstrom^3]:                                       424.784591
 CELL_TOP| Vector a [angstrom    11.252     0.000     0.000   |a| =    11.252000
 CELL_TOP| Vector b [angstrom     0.000     3.831     0.000   |b| =     3.831200
 CELL_TOP| Vector c [angstrom    -5.053     0.000     9.854   |c| =    11.074000
 CELL_TOP| Angle (b,c), alpha [degree]:                                90.000000
 CELL_TOP| Angle (a,c), beta  [degree]:                               117.150000
 CELL_TOP| Angle (a,b), gamma [degree]:                                90.000000
 CELL_TOP| Numerically orthorhombic:                                          NO
 CELL_TOP| Periodicity                                                       XYZ

 CELL| Volume [angstrom^3]:                                           424.784591
 CELL| Vector a [angstrom]:      11.252     0.000     0.000   |a| =    11.252000
 CELL| Vector b [angstrom]:       0.000     3.831     0.000   |b| =     3.831200
 CELL| Vector c [angstrom]:      -5.053     0.000     9.854   |c| =    11.074000
 CELL| Angle (b,c), alpha [degree]:                                    90.000000
 CELL| Angle (a,c), beta  [degree]:                                   117.150000
 CELL| Angle (a,b), gamma [degree]:                                    90.000000
 CELL| Numerically orthorhombic:                                              NO
 CELL| Periodicity                                                           XYZ

 CELL_REF| Volume [angstrom^3]:                                       424.784591
 CELL_REF| Vector a [angstrom    11.252     0.000     0.000   |a| =    11.252000
 CELL_REF| Vector b [angstrom     0.000     3.831     0.000   |b| =     3.831200
 CELL_REF| Vector c [angstrom    -5.053     0.000     9.854   |c| =    11.074000
 CELL_REF| Angle (b,c), alpha [degree]:                                90.000000
 CELL_REF| Angle (a,c), beta  [degree]:                               117.150000
 CELL_REF| Angle (a,b), gamma [degree]:                                90.000000
 CELL_REF| Numerically orthorhombic:                                          NO
 CELL_REF| Periodicity                                                       XYZ

 *******************************************************************************
 *******************************************************************************
 **                                                                           **
 **     #####                         ##              ##                      **
 **    ##   ##            ##          ##              ##                      **
 **   ##     ##                       ##            ######                    **
 **   ##     ##  ##   ##  ##   #####  ##  ##   ####   ##    #####    #####    **
 **   ##     ##  ##   ##  ##  ##      ## ##   ##      ##   ##   ##  ##   ##   **
 **   ##  ## ##  ##   ##  ##  ##      ####     ###    ##   ######   ######    **
 **    ##  ###   ##   ##  ##  ##      ## ##      ##   ##   ##       ##        **
 **     #######   #####   ##   #####  ##  ##  ####    ##    #####   ##        **
 **           ##                                                    ##        **
 **                                                                           **
 **                                                ... make the atoms dance   **
 **                                                                           **
 **            Copyright (C) by CP2K developers group (2000-2024)             **
 **                      J. Chem. Phys. 152, 194103 (2020)                    **
 **                                                                           **
 *******************************************************************************

 DFT| Spin restricted Kohn-Sham (RKS) calculation                            RKS
 DFT| Multiplicity                                                             1
 DFT| Number of spin states                                                    1
 DFT| Charge                                                                   0
 DFT| Self-interaction correction (SIC)                                       NO
 DFT| Cutoffs: density                                              1.000000E-10
 DFT|          gradient                                             1.000000E-10
 DFT|          tau                                                  1.000000E-10
 DFT|          cutoff_smoothing_range                               0.000000E+00
 DFT| XC density smoothing                                                  NONE
 DFT| XC derivatives                                                          PW

 FUNCTIONAL| PBE:
 FUNCTIONAL| J.P.Perdew, K.Burke, M.Ernzerhof, Phys. Rev. Letter, vol. 77, n 18,
 FUNCTIONAL|  pp. 3865-3868, (1996) {spin unpolarized}                          

 vdW POTENTIAL|                                                   Pair Potential
 vdW POTENTIAL|          DFT-D3 (Version 3.1)
 vdW POTENTIAL|          Potential Form: S. Grimme et al, JCP 132: 154104 (2010)
 vdW POTENTIAL|          Zero Damping
 vdW POTENTIAL|          Cutoff Radius [Bohr]:                             37.79
 vdW POTENTIAL|          s6 Scaling Factor:                               1.0000
 vdW POTENTIAL|          sr6 Scaling Factor:                              1.2170
 vdW POTENTIAL|          s8 Scaling Factor:                               0.7220
 vdW POTENTIAL|          Cutoff for CN calculation:                   0.1000E-05

 QS| Method:                                                                 GPW
 QS| Density plane wave grid type                        NON-SPHERICAL FULLSPACE
 QS| Number of grid levels:                                                    4
 QS| Density cutoff [a.u.]:                                                400.0
 QS| Multi grid cutoff [a.u.]: 1) grid level                               400.0
 QS|                           2) grid level                               133.3
 QS|                           3) grid level                                44.4
 QS|                           4) grid level                                14.8
 QS| Grid level progression factor:                                          3.0
 QS| Relative density cutoff [a.u.]:                                        30.0
 QS| Interaction thresholds: eps_pgf_orb:                                3.2E-09
 QS|                         eps_filter_matrix:                          0.0E+00
 QS|                         eps_core_charge:                            1.0E-19
 QS|                         eps_rho_gspace:                             1.0E-17
 QS|                         eps_rho_rspace:                             1.0E-17
 QS|                         eps_gvg_rspace:                             3.2E-09
 QS|                         eps_ppl:                                    1.0E-02
 QS|                         eps_ppnl:                                   3.2E-11


 ATOMIC KIND INFORMATION

  1. Atomic kind: N                                     Number of atoms:       8

     Orbital Basis Set                                        DZVP-MOLOPT-SR-GTH

       Number of orbital shell sets:                                           1
       Number of orbital shells:                                               5
       Number of primitive Cartesian functions:                                5
       Number of Cartesian basis functions:                                   14
       Number of spherical basis functions:                                   13
       Norm type:                                                              2

       Normalised Cartesian orbitals:

                        Set   Shell   Orbital            Exponent    Coefficient

                          1       1    2s                7.341988       0.360561
                                                         2.542637       0.139177
                                                         0.888575      -0.289383
                                                         0.333802      -0.182244
                                                         0.112012      -0.019197

                          1       2    3s                7.341988       0.282000
                                                         2.542637       0.177875
                                                         0.888575      -0.278381
                                                         0.333802       0.008577
                                                         0.112012       0.154176

                          1       3    3px               7.341988      -1.188719
                                                         2.542637      -0.973969
                                                         0.888575      -0.501079
                                                         0.333802      -0.144894
                                                         0.112012      -0.013986
                          1       3    3py               7.341988      -1.188719
                                                         2.542637      -0.973969
                                                         0.888575      -0.501079
                                                         0.333802      -0.144894
                                                         0.112012      -0.013986
                          1       3    3pz               7.341988      -1.188719
                                                         2.542637      -0.973969
                                                         0.888575      -0.501079
                                                         0.333802      -0.144894
                                                         0.112012      -0.013986

                          1       4    4px               7.341988      -0.094798
                                                         2.542637       0.050069
                                                         0.888575      -0.114797
                                                         0.333802       0.144793
                                                         0.112012       0.066710
                          1       4    4py               7.341988      -0.094798
                                                         2.542637       0.050069
                                                         0.888575      -0.114797
                                                         0.333802       0.144793
                                                         0.112012       0.066710
                          1       4    4pz               7.341988      -0.094798
                                                         2.542637       0.050069
                                                         0.888575      -0.114797
                                                         0.333802       0.144793
                                                         0.112012       0.066710

                          1       5    4dx2              7.341988       1.354688
                                                         2.542637       0.690378
                                                         0.888575       0.855359
                                                         0.333802       0.091746
                                                         0.112012       0.001253
                          1       5    4dxy              7.341988       2.346389
                                                         2.542637       1.195770
                                                         0.888575       1.481524
                                                         0.333802       0.158910
                                                         0.112012       0.002169
                          1       5    4dxz              7.341988       2.346389
                                                         2.542637       1.195770
                                                         0.888575       1.481524
                                                         0.333802       0.158910
                                                         0.112012       0.002169
                          1       5    4dy2              7.341988       1.354688
                                                         2.542637       0.690378
                                                         0.888575       0.855359
                                                         0.333802       0.091746
                                                         0.112012       0.001253
                          1       5    4dyz              7.341988       2.346389
                                                         2.542637       1.195770
                                                         0.888575       1.481524
                                                         0.333802       0.158910
                                                         0.112012       0.002169
                          1       5    4dz2              7.341988       1.354688
                                                         2.542637       0.690378
                                                         0.888575       0.855359
                                                         0.333802       0.091746
                                                         0.112012       0.001253

       Atomic covalent radius [Angstrom]:                                  0.750

       Atomic van der Waals radius [Angstrom]:                             1.550

     GTH Potential information for                                    GTH-PBE-q5

       Description:                       Goedecker-Teter-Hutter pseudopotential
                                           Goedecker et al., PRB 54, 1703 (1996)
                                          Hartwigsen et al., PRB 58, 3641 (1998)
                                                      Krack, TCA 114, 145 (2005)

       Gaussian exponent of the core charge distribution:               6.208322
       Electronic configuration (s p d ...):                               2   3

       Parameters of the local part of the GTH pseudopotential:

                          rloc        C1          C2          C3          C4
                        0.283791  -12.415226    1.868096

       Parameters of the non-local part of the GTH pseudopotential:

                   l      r(l)      h(i,j,l)

                   0    0.255405   13.630263
                   1    0.245495

  2. Atomic kind: C                                     Number of atoms:      16

     Orbital Basis Set                                        DZVP-MOLOPT-SR-GTH

       Number of orbital shell sets:                                           1
       Number of orbital shells:                                               5
       Number of primitive Cartesian functions:                                5
       Number of Cartesian basis functions:                                   14
       Number of spherical basis functions:                                   13
       Norm type:                                                              2

       Normalised Cartesian orbitals:

                        Set   Shell   Orbital            Exponent    Coefficient

                          1       1    2s                5.605331       0.322515
                                                         2.113016       0.213043
                                                         0.769911      -0.209686
                                                         0.348157      -0.219794
                                                         0.128212      -0.022789

                          1       2    3s                5.605331       0.552234
                                                         2.113016       0.082072
                                                         0.769911       0.007843
                                                         0.348157       0.136893
                                                         0.128212       0.074283

                          1       3    3px               5.605331      -0.703879
                                                         2.113016      -0.642521
                                                         0.769911      -0.374851
                                                         0.348157      -0.139743
                                                         0.128212      -0.027849
                          1       3    3py               5.605331      -0.703879
                                                         2.113016      -0.642521
                                                         0.769911      -0.374851
                                                         0.348157      -0.139743
                                                         0.128212      -0.027849
                          1       3    3pz               5.605331      -0.703879
                                                         2.113016      -0.642521
                                                         0.769911      -0.374851
                                                         0.348157      -0.139743
                                                         0.128212      -0.027849

                          1       4    4px               5.605331      -0.480376
                                                         2.113016      -0.552894
                                                         0.769911      -0.316145
                                                         0.348157       0.210505
                                                         0.128212       0.076095
                          1       4    4py               5.605331      -0.480376
                                                         2.113016      -0.552894
                                                         0.769911      -0.316145
                                                         0.348157       0.210505
                                                         0.128212       0.076095
                          1       4    4pz               5.605331      -0.480376
                                                         2.113016      -0.552894
                                                         0.769911      -0.316145
                                                         0.348157       0.210505
                                                         0.128212       0.076095

                          1       5    4dx2              5.605331       0.640026
                                                         2.113016       0.274300
                                                         0.769911       0.446711
                                                         0.348157       0.028674
                                                         0.128212       0.029790
                          1       5    4dxy              5.605331       1.108557
                                                         2.113016       0.475102
                                                         0.769911       0.773726
                                                         0.348157       0.049666
                                                         0.128212       0.051599
                          1       5    4dxz              5.605331       1.108557
                                                         2.113016       0.475102
                                                         0.769911       0.773726
                                                         0.348157       0.049666
                                                         0.128212       0.051599
                          1       5    4dy2              5.605331       0.640026
                                                         2.113016       0.274300
                                                         0.769911       0.446711
                                                         0.348157       0.028674
                                                         0.128212       0.029790
                          1       5    4dyz              5.605331       1.108557
                                                         2.113016       0.475102
                                                         0.769911       0.773726
                                                         0.348157       0.049666
                                                         0.128212       0.051599
                          1       5    4dz2              5.605331       0.640026
                                                         2.113016       0.274300
                                                         0.769911       0.446711
                                                         0.348157       0.028674
                                                         0.128212       0.029790

       Atomic covalent radius [Angstrom]:                                  0.770

       Atomic van der Waals radius [Angstrom]:                             1.700

     GTH Potential information for                                    GTH-PBE-q4

       Description:                       Goedecker-Teter-Hutter pseudopotential
                                           Goedecker et al., PRB 54, 1703 (1996)
                                          Hartwigsen et al., PRB 58, 3641 (1998)
                                                      Krack, TCA 114, 145 (2005)

       Gaussian exponent of the core charge distribution:               4.364419
       Electronic configuration (s p d ...):                               2   2

       Parameters of the local part of the GTH pseudopotential:

                          rloc        C1          C2          C3          C4
                        0.338471   -8.803674    1.339211

       Parameters of the non-local part of the GTH pseudopotential:

                   l      r(l)      h(i,j,l)

                   0    0.302576    9.622487
                   1    0.291507

  3. Atomic kind: H                                     Number of atoms:      16

     Orbital Basis Set                                        DZVP-MOLOPT-SR-GTH

       Number of orbital shell sets:                                           1
       Number of orbital shells:                                               3
       Number of primitive Cartesian functions:                                5
       Number of Cartesian basis functions:                                    5
       Number of spherical basis functions:                                    5
       Norm type:                                                              2

       Normalised Cartesian orbitals:

                        Set   Shell   Orbital            Exponent    Coefficient

                          1       1    2s               10.068468      -0.133023
                                                         2.680223      -0.177618
                                                         0.791502      -0.258419
                                                         0.239116      -0.107525
                                                         0.082193      -0.014019

                          1       2    3s               10.068468       0.344673
                                                         2.680223       1.819821
                                                         0.791502      -0.999069
                                                         0.239116       0.017430
                                                         0.082193       0.082660

                          1       3    3px              10.068468       0.155326
                                                         2.680223       0.367157
                                                         0.791502       0.311480
                                                         0.239116       0.080105
                                                         0.082193       0.033440
                          1       3    3py              10.068468       0.155326
                                                         2.680223       0.367157
                                                         0.791502       0.311480
                                                         0.239116       0.080105
                                                         0.082193       0.033440
                          1       3    3pz              10.068468       0.155326
                                                         2.680223       0.367157
                                                         0.791502       0.311480
                                                         0.239116       0.080105
                                                         0.082193       0.033440

       Atomic covalent radius [Angstrom]:                                  0.320

       Atomic van der Waals radius [Angstrom]:                             1.090

     GTH Potential information for                                    GTH-PBE-q1

       Description:                       Goedecker-Teter-Hutter pseudopotential
                                           Goedecker et al., PRB 54, 1703 (1996)
                                          Hartwigsen et al., PRB 58, 3641 (1998)
                                                      Krack, TCA 114, 145 (2005)

       Gaussian exponent of the core charge distribution:              12.500000
       Electronic configuration (s p d ...):                                   1

       Parameters of the local part of the GTH pseudopotential:

                          rloc        C1          C2          C3          C4
                        0.200000   -4.178900    0.724463


 MOLECULE KIND INFORMATION


 All atoms are their own molecule, skipping detailed information


 TOTAL NUMBERS AND MAXIMUM NUMBERS

  Total number of            - Atomic kinds:                                   3
                             - Atoms:                                         40
                             - Shell sets:                                    40
                             - Shells:                                       168
                             - Primitive Cartesian functions:                200
                             - Cartesian basis functions:                    416
                             - Spherical basis functions:                    392

  Maximum angular momentum of- Orbital basis functions:                        2
                             - Local part of the GTH pseudopotential:          2
                             - Non-local part of the GTH pseudopotential:      0


 MODULE QUICKSTEP: ATOMIC COORDINATES IN ANGSTROM

   Atom Kind Element         X             Y             Z       Z(eff)     Mass
      1    1 N     7      0.059392      0.086368      1.318333   5.0000  14.0067
      2    2 C     6      0.784321      0.981535      0.595988   4.0000  12.0107
      3    3 H     1      1.392309      1.666279      1.190012   1.0000   1.0079
      4    2 C     6     -0.696307     -0.701635      0.817660   4.0000  12.0107
      5    3 H     1     -1.269796     -1.488878      1.380164   1.0000   1.0079
      6    1 N     7      4.238056      1.783628      0.567068   5.0000  14.0067
      7    2 C     6      5.242995      1.050544      1.086620   4.0000  12.0107
      8    3 H     1      4.986559      0.090624      1.785227   1.0000   1.0079
      9    2 C     6      4.676274      2.458224     -0.491251   4.0000  12.0107
     10    3 H     1      3.777415      3.066810     -0.904665   1.0000   1.0079
     11    1 N     7     -2.038406      2.132699      3.445506   5.0000  14.0067
     12    2 C     6     -2.759712      3.037202      4.191869   4.0000  12.0107
     13    3 H     1     -3.107097      4.000612      3.777510   1.0000   1.0079
     14    2 C     6     -1.571188      1.210868      4.189855   4.0000  12.0107
     15    3 H     1     -0.918835      0.457897      3.783492   1.0000   1.0079
     16    1 N     7     -6.503018      3.862724      4.166964   5.0000  14.0067
     17    2 C     6     -7.531165      2.992121      3.821071   4.0000  12.0107
     18    3 H     1     -7.028893      2.178848      3.377032   1.0000   1.0079
     19    2 C     6     -6.956174      4.606734      5.206295   4.0000  12.0107
     20    3 H     1     -6.165335      5.439613      5.522188   1.0000   1.0079
     21    1 N     7      0.018549     -0.010699     -1.280662   5.0000  14.0067
     22    2 C     6     -0.728050     -0.948177     -0.587096   4.0000  12.0107
     23    3 H     1     -1.448176     -1.700350     -1.161070   1.0000   1.0079
     24    2 C     6      0.641583      0.931677     -0.802461   4.0000  12.0107
     25    3 H     1      1.166229      1.337582     -1.645391   1.0000   1.0079
     26    1 N     7     -4.366144     -1.876968     -0.520691   5.0000  14.0067
     27    2 C     6     -5.322350     -1.099737     -0.925242   4.0000  12.0107
     28    3 H     1     -5.072788     -0.223193     -1.358323   1.0000   1.0079
     29    2 C     6     -4.777294     -2.869481      0.394628   4.0000  12.0107
     30    3 H     1     -4.055917     -3.566632      0.760242   1.0000   1.0079
     31    1 N     7      2.316055     -2.099644     -3.547830   5.0000  14.0067
     32    2 C     6      3.224948     -2.693556     -4.146657   4.0000  12.0107
     33    3 H     1      4.084849     -3.551747     -3.796520   1.0000   1.0079
     34    2 C     6      1.663977     -1.223183     -4.518756   4.0000  12.0107
     35    3 H     1      0.723174     -0.545635     -4.059356   1.0000   1.0079
     36    1 N     7      7.087450     -4.037022     -4.309798   5.0000  14.0067
     37    2 C     6      8.090702     -3.035755     -4.096968   4.0000  12.0107
     38    3 H     1      7.827024     -2.315647     -3.370784   1.0000   1.0079
     39    2 C     6      7.480830     -4.852174     -5.301714   4.0000  12.0107
     40    3 H     1      6.957702     -5.716408     -5.767961   1.0000   1.0079



 SCF PARAMETERS         Density guess:                                   RESTART
                        --------------------------------------------------------
                        max_scf:                                              50
                        max_scf_history:                                       0
                        max_diis:                                              4
                        --------------------------------------------------------
                        eps_scf:                                        1.00E-09
                        eps_scf_history:                                0.00E+00
                        eps_diis:                                       1.00E-01
                        eps_eigval:                                     1.00E-05
                        --------------------------------------------------------
                        level_shift [a.u.]:                             0.000000
                        --------------------------------------------------------
                        Outer loop SCF in use 
                        No variables optimised in outer loop
                        eps_scf                                         1.00E-09
                        max_scf                                              900
                        No outer loop optimization
                        step_size                                       5.00E-01

 PW_GRID| Information for grid number                                          1
 PW_GRID| Grid distributed over                                    64 processors
 PW_GRID| Real space group dimensions                                    64    1
 PW_GRID| the grid is blocked:                                                NO
 PW_GRID| Cutoff [a.u.]                                                    400.0
 PW_GRID| spherical cutoff:                                                   NO
 PW_GRID|   Bounds   1            -96      95                Points:         192
 PW_GRID|   Bounds   2            -36      35                Points:          72
 PW_GRID|   Bounds   3            -96      95                Points:         192
 PW_GRID| Volume element (a.u.^3)  0.1080E-02     Volume (a.u.^3)      2866.5885
 PW_GRID| Grid span                                                    FULLSPACE
 PW_GRID|   Distribution                         Average         Max         Min
 PW_GRID|   G-Vectors                            41472.0       41472       41472
 PW_GRID|   G-Rays                                 216.0         216         216
 PW_GRID|   Real Space Points                    41472.0       41472       41472

 PW_GRID| Information for grid number                                          2
 PW_GRID| Number of the reference grid                                         1
 PW_GRID| Grid distributed over                                    64 processors
 PW_GRID| Real space group dimensions                                    64    1
 PW_GRID| the grid is blocked:                                                NO
 PW_GRID| Cutoff [a.u.]                                                    133.3
 PW_GRID| spherical cutoff:                                                   NO
 PW_GRID|   Bounds   1            -60      59                Points:         120
 PW_GRID|   Bounds   2            -20      19                Points:          40
 PW_GRID|   Bounds   3            -60      59                Points:         120
 PW_GRID| Volume element (a.u.^3)  0.4977E-02     Volume (a.u.^3)      2866.5885
 PW_GRID| Grid span                                                    FULLSPACE
 PW_GRID|   Distribution                         Average         Max         Min
 PW_GRID|   G-Vectors                             9000.0        9600        8400
 PW_GRID|   G-Rays                                  75.0          80          70
 PW_GRID|   Real Space Points                     9000.0        9600        4800

 PW_GRID| Information for grid number                                          3
 PW_GRID| Number of the reference grid                                         1
 PW_GRID| Grid distributed over                                    64 processors
 PW_GRID| Real space group dimensions                                    64    1
 PW_GRID| the grid is blocked:                                                NO
 PW_GRID| Cutoff [a.u.]                                                     44.4
 PW_GRID| spherical cutoff:                                                   NO
 PW_GRID|   Bounds   1            -32      31                Points:          64
 PW_GRID|   Bounds   2            -12      11                Points:          24
 PW_GRID|   Bounds   3            -32      31                Points:          64
 PW_GRID| Volume element (a.u.^3)  0.2916E-01     Volume (a.u.^3)      2866.5885
 PW_GRID| Grid span                                                    FULLSPACE
 PW_GRID|   Distribution                         Average         Max         Min
 PW_GRID|   G-Vectors                             1536.0        1920        1152
 PW_GRID|   G-Rays                                  24.0          30          18
 PW_GRID|   Real Space Points                     1536.0        1536        1536

 PW_GRID| Information for grid number                                          4
 PW_GRID| Number of the reference grid                                         1
 PW_GRID| Grid distributed over                                    64 processors
 PW_GRID| Real space group dimensions                                     8    8
 PW_GRID| the grid is blocked:                                                NO
 PW_GRID| Cutoff [a.u.]                                                     14.8
 PW_GRID| spherical cutoff:                                                   NO
 PW_GRID|   Bounds   1            -20      19                Points:          40
 PW_GRID|   Bounds   2             -7       7                Points:          15
 PW_GRID|   Bounds   3            -20      19                Points:          40
 PW_GRID| Volume element (a.u.^3)  0.1194         Volume (a.u.^3)      2866.5885
 PW_GRID| Grid span                                                    FULLSPACE
 PW_GRID|   Distribution                         Average         Max         Min
 PW_GRID|   G-Vectors                              375.0         560         280
 PW_GRID|   G-Rays                                   9.4          14           7
 PW_GRID|   Real Space Points                      375.0         400         200

 POISSON| Solver                                                        PERIODIC
 POISSON| Periodicity                                                        XYZ

 RS_GRID| Information for grid number                                          1
 RS_GRID|   Bounds   1            -96      95                Points:         192
 RS_GRID|   Bounds   2            -36      35                Points:          72
 RS_GRID|   Bounds   3            -96      95                Points:         192
 RS_GRID| Real space distribution over                                  8 groups
 RS_GRID| Real space distribution along direction                              1
 RS_GRID| Border size                                                         45
 RS_GRID| Real space distribution over                                  8 groups
 RS_GRID| Real space distribution along direction                              3
 RS_GRID| Border size                                                         45
 RS_GRID|   Distribution                         Average         Max         Min
 RS_GRID|   Planes                                 114.0         114         114
 RS_GRID|   Distribution                         Average         Max         Min
 RS_GRID|   Planes                                 114.0         114         114

 RS_GRID| Information for grid number                                          2
 RS_GRID|   Bounds   1            -60      59                Points:         120
 RS_GRID|   Bounds   2            -20      19                Points:          40
 RS_GRID|   Bounds   3            -60      59                Points:         120
 RS_GRID| Real space fully replicated
 RS_GRID| Group size                                                           1

 RS_GRID| Information for grid number                                          3
 RS_GRID|   Bounds   1            -32      31                Points:          64
 RS_GRID|   Bounds   2            -12      11                Points:          24
 RS_GRID|   Bounds   3            -32      31                Points:          64
 RS_GRID| Real space fully replicated
 RS_GRID| Group size                                                           1

 RS_GRID| Information for grid number                                          4
 RS_GRID|   Bounds   1            -20      19                Points:          40
 RS_GRID|   Bounds   2             -7       7                Points:          15
 RS_GRID|   Bounds   3            -20      19                Points:          40
 RS_GRID| Real space fully replicated
 RS_GRID| Group size                                                           1

 Number of electrons:                                                        120
 Number of occupied orbitals:                                                 60
 Number of molecular orbitals:                                                60

 Number of orbital functions:                                                392
 Number of independent orbital functions:                                    392

 Extrapolation method: initial_guess


 SCF WAVEFUNCTION OPTIMIZATION

  ----------------------------------- OT ---------------------------------------
  Minimizer      : DIIS                : direct inversion
                                         in the iterative subspace
                                         using   7 DIIS vectors
                                         safer DIIS on
  Preconditioner : FULL_ALL            : diagonalization, state selective
  Precond_solver : DEFAULT
  stepsize       :    0.15000000                  energy_gap     :    0.08000000
  eps_taylor     :   0.10000E-15                  max_taylor     :             4
  ----------------------------------- OT ---------------------------------------

  Step     Update method      Time    Convergence         Total energy    Change
  ------------------------------------------------------------------------------
     1 OT DIIS     0.15E+00    0.6     0.01654420      -179.0174470165 -1.79E+02
     2 OT DIIS     0.15E+00    0.7     0.00666016      -179.6427941020 -6.25E-01
     3 OT DIIS     0.15E+00    0.7     0.00748872      -179.6988126546 -5.60E-02
     4 OT DIIS     0.15E+00    0.7     0.00285921      -179.7345791357 -3.58E-02
     5 OT DIIS     0.15E+00    0.7     0.00114532      -179.7388662906 -4.29E-03
     6 OT DIIS     0.15E+00    0.7     0.00060148      -179.7396886257 -8.22E-04
     7 OT DIIS     0.15E+00    0.7     0.00026966      -179.7399288165 -2.40E-04
     8 OT DIIS     0.15E+00    0.7     0.00010760      -179.7399918594 -6.30E-05
     9 OT DIIS     0.15E+00    0.7     0.00006337      -179.7400084012 -1.65E-05
    10 OT DIIS     0.15E+00    0.7     0.00005273      -179.7400145137 -6.11E-06
    11 OT DIIS     0.15E+00    0.7     0.00002803      -179.7400178620 -3.35E-06
    12 OT DIIS     0.15E+00    0.7     0.00002073      -179.7400194812 -1.62E-06
    13 OT DIIS     0.15E+00    0.7     0.00001858      -179.7400202111 -7.30E-07
    14 OT DIIS     0.15E+00    0.8     0.00001352      -179.7400207990 -5.88E-07
    15 OT DIIS     0.15E+00    0.7     0.00001199      -179.7400213123 -5.13E-07
    16 OT DIIS     0.15E+00    0.7     0.00000840      -179.7400217190 -4.07E-07
    17 OT DIIS     0.15E+00    0.7     0.00000587      -179.7400219815 -2.63E-07
    18 OT DIIS     0.15E+00    0.7     0.00000442      -179.7400220916 -1.10E-07
    19 OT DIIS     0.15E+00    0.7     0.00000289      -179.7400221141 -2.25E-08
    20 OT DIIS     0.15E+00    0.7     0.00000142      -179.7400221256 -1.15E-08
    21 OT DIIS     0.15E+00    0.7     0.00000135      -179.7400221274 -1.73E-09
    22 OT DIIS     0.15E+00    0.7     0.00000089      -179.7400221284 -1.08E-09
    23 OT DIIS     0.15E+00    0.7     0.00000062      -179.7400221289 -4.66E-10
    24 OT DIIS     0.15E+00    0.7     0.00000041      -179.7400221292 -2.44E-10
    25 OT DIIS     0.15E+00    0.7     0.00000027      -179.7400221293 -1.59E-10
    26 OT DIIS     0.15E+00    0.7     0.00000022      -179.7400221294 -1.00E-10
    27 OT DIIS     0.15E+00    0.7     0.00000019      -179.7400221295 -6.99E-11
    28 OT DIIS     0.15E+00    0.7     0.00000015      -179.7400221296 -8.19E-11
    29 OT DIIS     0.15E+00    0.7     0.00000014      -179.7400221296 -7.31E-11
    30 OT DIIS     0.15E+00    0.7     0.00000012      -179.7400221297 -5.33E-11
    31 OT DIIS     0.15E+00    0.7     0.00000009      -179.7400221297 -3.93E-11
    32 OT DIIS     0.15E+00    0.7     0.00000007      -179.7400221298 -1.92E-11
    33 OT DIIS     0.15E+00    0.7     0.00000004      -179.7400221298 -9.75E-12
    34 OT DIIS     0.15E+00    0.7     0.00000003      -179.7400221298 -3.10E-12
    35 OT DIIS     0.15E+00    0.7     0.00000003      -179.7400221298 -7.11E-13
    36 OT DIIS     0.15E+00    0.7     0.00000001      -179.7400221298 -4.55E-13
    37 OT DIIS     0.15E+00    0.7     9.5585E-09      -179.7400221298 -1.14E-13
    38 OT DIIS     0.15E+00    0.7     7.6067E-09      -179.7400221298 -8.53E-14
    39 OT DIIS     0.15E+00    0.7     5.4104E-09      -179.7400221298 -2.84E-14
    40 OT DIIS     0.15E+00    0.7     4.4834E-09      -179.7400221298 -2.84E-14
    41 OT DIIS     0.15E+00    0.7     3.4293E-09      -179.7400221298 -1.42E-13
    42 OT DIIS     0.15E+00    0.7     2.7585E-09      -179.7400221298  5.68E-14
    43 OT DIIS     0.15E+00    0.7     2.6045E-09      -179.7400221298  0.00E+00
    44 OT DIIS     0.15E+00    0.7     2.0306E-09      -179.7400221298  5.68E-14
    45 OT DIIS     0.15E+00    0.7     1.5835E-09      -179.7400221298 -8.53E-14
    46 OT DIIS     0.15E+00    0.7     1.4230E-09      -179.7400221298  0.00E+00
    47 OT DIIS     0.15E+00    0.7     9.1440E-10      -179.7400221298  8.53E-14

  *** SCF run converged in    47 steps ***


  Electronic density on regular grids:       -120.0000000000       -0.0000000000
  Core density on regular grids:              120.0000000000        0.0000000000
  Total charge density on r-space grids:       -0.0000000000
  Total charge density g-space grids:          -0.0000000000

  Overlap energy of the core charge distribution:               0.00001412091173
  Self energy of the core charge distribution:               -434.73266088811687
  Core Hamiltonian energy:                                    133.19200213951140
  Hartree energy:                                             175.61900085881183
  Exchange-correlation energy:                                -53.74064636113660
  Dispersion energy:                                           -0.07773199974612

  Total energy:                                              -179.74002212976464

  outer SCF iter =    1 RMS gradient =   0.91E-09 energy =       -179.7400221298
  outer SCF loop converged in   1 iterations or   47 steps


 !-----------------------------------------------------------------------------!
                     Mulliken Population Analysis

 #  Atom  Element  Kind  Atomic population                           Net charge
       1     N        1          5.206131                             -0.206131
       2     C        2          3.985231                              0.014769
       3     H        3          0.923015                              0.076985
       4     C        2          3.948313                              0.051687
       5     H        3          0.919685                              0.080315
       6     N        1          5.184330                             -0.184330
       7     C        2          3.999358                              0.000642
       8     H        3          0.884851                              0.115149
       9     C        2          3.980614                              0.019386
      10     H        3          0.896429                              0.103571
      11     N        1          5.165919                             -0.165919
      12     C        2          4.032240                             -0.032240
      13     H        3          0.932903                              0.067097
      14     C        2          3.991525                              0.008475
      15     H        3          0.925506                              0.074494
      16     N        1          5.188114                             -0.188114
      17     C        2          3.966485                              0.033515
      18     H        3          0.943482                              0.056518
      19     C        2          3.990766                              0.009234
      20     H        3          0.888233                              0.111767
      21     N        1          5.185759                             -0.185759
      22     C        2          4.035414                             -0.035414
      23     H        3          0.878871                              0.121129
      24     C        2          3.990691                              0.009309
      25     H        3          0.930459                              0.069541
      26     N        1          5.183737                             -0.183737
      27     C        2          3.954345                              0.045655
      28     H        3          0.972951                              0.027049
      29     C        2          4.007963                             -0.007963
      30     H        3          0.927132                              0.072868
      31     N        1          5.222770                             -0.222770
      32     C        2          3.965938                              0.034062
      33     H        3          0.868823                              0.131177
      34     C        2          4.020750                             -0.020750
      35     H        3          0.873113                              0.126887
      36     N        1          5.226149                             -0.226149
      37     C        2          3.980815                              0.019185
      38     H        3          0.931867                              0.068133
      39     C        2          3.979657                              0.020343
      40     H        3          0.909668                              0.090332
 # Total charge                            120.000000                 -0.000000

 !-----------------------------------------------------------------------------!

 !-----------------------------------------------------------------------------!
                           Hirshfeld Charges

  #Atom  Element  Kind  Ref Charge     Population                    Net charge
      1       N      1       5.000          5.415                        -0.415
      2       C      2       4.000          4.216                        -0.216
      3       H      3       1.000          0.546                         0.454
      4       C      2       4.000          4.199                        -0.199
      5       H      3       1.000          0.546                         0.454
      6       N      1       5.000          5.381                        -0.381
      7       C      2       4.000          4.235                        -0.235
      8       H      3       1.000          0.535                         0.465
      9       C      2       4.000          4.246                        -0.246
     10       H      3       1.000          0.554                         0.446
     11       N      1       5.000          5.419                        -0.419
     12       C      2       4.000          4.246                        -0.246
     13       H      3       1.000          0.543                         0.457
     14       C      2       4.000          4.295                        -0.295
     15       H      3       1.000          0.543                         0.457
     16       N      1       5.000          5.451                        -0.451
     17       C      2       4.000          4.252                        -0.252
     18       H      3       1.000          0.549                         0.451
     19       C      2       4.000          4.258                        -0.258
     20       H      3       1.000          0.548                         0.452
     21       N      1       5.000          5.476                        -0.476
     22       C      2       4.000          4.246                        -0.246
     23       H      3       1.000          0.536                         0.464
     24       C      2       4.000          4.213                        -0.213
     25       H      3       1.000          0.533                         0.467
     26       N      1       5.000          5.422                        -0.422
     27       C      2       4.000          4.224                        -0.224
     28       H      3       1.000          0.551                         0.449
     29       C      2       4.000          4.289                        -0.289
     30       H      3       1.000          0.545                         0.455
     31       N      1       5.000          5.370                        -0.370
     32       C      2       4.000          4.265                        -0.265
     33       H      3       1.000          0.550                         0.450
     34       C      2       4.000          4.267                        -0.267
     35       H      3       1.000          0.539                         0.461
     36       N      1       5.000          5.426                        -0.426
     37       C      2       4.000          4.245                        -0.245
     38       H      3       1.000          0.543                         0.457
     39       C      2       4.000          4.243                        -0.243
     40       H      3       1.000          0.540                         0.460

  Total Charge                                                           -0.000
 !-----------------------------------------------------------------------------!

 *******************************************************************************
 **                                                                           **
 **         ######## #######   #######   ######## #######  ########           **
 **            ##    ##     ## ##     ## ##       ##   ##     ##              **
 **            ##    ##     ## ##     ## ######   #######     ##              **
 **            ##    ##     ## ##     ## ##       ##          ##              **
 **            ##    #######   #######   ##       ##          ##              **
 **                                                                           **
 *******************************************************************************
 KERNEL|                                                                    sTDA
 KERNEL| Coulomb term uses Ewald summation
 KERNEL| Exact exchange term                                                  NO
 KERNEL| Transition density filter                                     0.100E-09
 KERNEL| Spin symmetry of excitations                                    Singlet
 TDDFPT| Number of states calculated                                          80
 TDDFPT| Number of Davidson iterations                                       100
 TDDFPT| Davidson iteration convergence                                0.367E-06
 TDDFPT| Max. number of Krylov space vectors                                5000
 TDDFPT| Molecular Orbitals:        Spin       AOs       Occ      Virt     Total
 TDDFPT|                               1       392        60       332       392
 sTDA| Exchange term is not used!
 sTDA| HFX Fraction                                                       0.0000
 sTDA| Mataga-Nishimoto exponent (C)                                      1.4200
 sTDA| Mataga-Nishimoto exponent (X)                                      0.2000
 sTDA| TD matrix filter                                           0.10000000E-09
 
 -------------------------------------------------------------------------------
 -                             Create Matrix SQRT(S)                           -
 -------------------------------------------------------------------------------

     Lanczos converged:  F threshold:   0.100E-03
     Est. extremal eigenvalues:    0.877E+01   0.415E-02
     Est. condition number :    0.212E+04

 Order=           3
     NS sqrt iter    1 1.00000000   0.207E+01       0.023      167.858
     NS sqrt iter    2 1.00000000   0.135E+01       0.005     1666.848
     NS sqrt iter    3 1.00000000   0.726E+00       0.004     1781.559
     NS sqrt iter    4 1.00000000   0.348E+00       0.004     1737.357
     NS sqrt iter    5 1.00000000   0.149E+00       0.004     1782.786
     NS sqrt iter    6 1.00000000   0.741E-01       0.004     1784.639
     NS sqrt iter    7 1.00000000   0.197E-01       0.004     1754.479
     NS sqrt iter    8 1.00000000   0.478E-03       0.005     1265.863
     NS sqrt iter    9 1.00000000   0.875E-08       0.003      598.716
     Symmetrizing Results
     Final NS sqrt iter    9 1.00000000   0.112E-07


 EWALD| Summation is done by:                                               SPME
 EWALD| Alpha parameter [       ANGSTROM^-1]                              1.8897
 EWALD| Real Space Cutoff [          ANGSTROM]                            1.7854
 EWALD| G-space max. Miller index                         75        25        75
 EWALD| Spline interpolation order                                             6

 PW_GRID| Information for grid number                                          5
 PW_GRID| Grid distributed over                                    64 processors
 PW_GRID| Real space group dimensions                                    64    1
 PW_GRID| the grid is blocked:                                                NO
 PW_GRID| Cutoff [a.u.]                                                     54.2
 PW_GRID| spherical cutoff:                                                  YES
 PW_GRID| Grid points within cutoff                                        27299
 PW_GRID|   Bounds   1            -37      37                Points:          75
 PW_GRID|   Bounds   2            -12      12                Points:          25
 PW_GRID|   Bounds   3            -37      37                Points:          75
 PW_GRID| Volume element (a.u.^3)  0.2038E-01     Volume (a.u.^3)      2866.5885
 PW_GRID| Grid span                                                    HALFSPACE
 PW_GRID|   Distribution                         Average         Max         Min
 PW_GRID|   G-Vectors                              426.5         500         341
 PW_GRID|   G-Rays                                  20.2          22          20
 PW_GRID|   Real Space Points                     2197.3        3750        1875

 RS_GRID| Information for grid number                                          5
 RS_GRID|   Bounds   1            -37      37                Points:          75
 RS_GRID|   Bounds   2            -12      12                Points:          25
 RS_GRID|   Bounds   3            -37      37                Points:          75
 RS_GRID| Real space distribution over                                  8 groups
 RS_GRID| Real space distribution along direction                              1
 RS_GRID| Border size                                                          3
 RS_GRID| Real space distribution over                                  8 groups
 RS_GRID| Real space distribution along direction                              3
 RS_GRID| Border size                                                          3
 RS_GRID|   Distribution                         Average         Max         Min
 RS_GRID|   Planes                                  15.4          16          15
 RS_GRID|   Distribution                         Average         Max         Min
 RS_GRID|   Planes                                  15.4          16          15
 
 -------------------------------------------------------------------------------
 -                            TDDFPT Initial Guess                             -
 -------------------------------------------------------------------------------
          State         Occupied      ->      Virtual          Excitation
          number         orbital              orbital          energy (eV)
 -------------------------------------------------------------------------------
             1               60                   61              0.56137
             2               60                   62              1.27470
             3               60                   63              1.41252
             4               60                   64              1.58688
             5               60                   65              1.77944
             6               60                   66              1.87001
             7               59                   61              2.19631
             8               58                   61              2.34008
             9               57                   61              2.51762
            10               56                   61              2.72997
            11               59                   62              2.90965
            12               60                   67              2.95865
            13               59                   63              3.04747
            14               58                   62              3.05342
            15               58                   63              3.19124
            16               59                   64              3.22183
            17               55                   61              3.22604
            18               57                   62              3.23096
            19               58                   64              3.36560
            20               57                   63              3.36878
            21               54                   61              3.39725
            22               59                   65              3.41438
            23               56                   62              3.44330
            24               59                   66              3.50496
            25               57                   64              3.54314
            26               58                   65              3.55815
            27               56                   63              3.58112
            28               60                   68              3.62957
            29               58                   66              3.64873
            30               57                   65              3.73569
            31               53                   61              3.74724
            32               56                   64              3.75548
            33               57                   66              3.82627
            34               55                   62              3.93938
            35               56                   65              3.94804
            36               56                   66              4.03861
            37               52                   61              4.07008
            38               55                   63              4.07720
            39               54                   62              4.11058
            40               51                   61              4.11982
            41               54                   63              4.24840
            42               55                   64              4.25156
            43               50                   61              4.26116
            44               49                   61              4.31544
            45               54                   64              4.42276
            46               48                   61              4.43812
            47               55                   65              4.44411
            48               53                   62              4.46058
            49               55                   66              4.53469
            50               47                   61              4.56432
            51               59                   67              4.59360
            52               53                   63              4.59840
            53               54                   65              4.61532
            54               46                   61              4.69435
            55               54                   66              4.70589
            56               58                   67              4.73737
            57               53                   64              4.77276
            58               52                   62              4.78341
            59               45                   61              4.79040
            60               51                   62              4.83315
            61               57                   67              4.91491
            62               52                   63              4.92123
            63               53                   65              4.96531
            64               51                   63              4.97097
            65               50                   62              4.97449
            66               49                   62              5.02878
            67               53                   66              5.05589
            68               52                   64              5.09560
            69               50                   63              5.11231
            70               60                   69              5.11671
            71               56                   67              5.12725
            72               51                   64              5.14533
            73               48                   62              5.15145
            74               49                   63              5.16660
            75               59                   68              5.26451
            76               47                   62              5.27765
            77               50                   64              5.28668
            78               52                   65              5.28815
            79               48                   63              5.28927
            80               44                   61              5.30924

      Number of active states:                                      19920
 -------------------------------------------------------------------------------
 
 -------------------------------------------------------------------------------
 -                      TDDFPT WAVEFUNCTION OPTIMIZATION                       -
 -------------------------------------------------------------------------------

          Step            Time         Convergence           Conv. states
 -------------------------------------------------------------------------------

    State    Exc. energy (eV)      Convergence (eV)
        1       0.5647425             3.3752E-03
        2       1.2846348             9.9334E-03
        3       1.6002196             1.8770E-01
        4       1.6226730             3.5789E-02
        5       1.7891241             9.6882E-03
        6       1.8853572             1.5345E-02
        7       2.2043209             8.0077E-03
        8       2.3498225             9.7406E-03
        9       2.5249980             7.3750E-03
       10       2.7645365             3.4569E-02
       11       2.9195456             9.8983E-03
       12       2.9674604             8.8062E-03
       13       3.1544067             1.0694E-01
       14       3.2204313             1.6702E-01
       15       3.2264194             3.5184E-02
       16       3.2292620             7.4318E-03
       17       3.2343861             8.3443E-03
       18       3.2441929             1.3236E-02
       19       3.3897607             2.4162E-02
       20       3.4002498             3.1474E-02
       21       3.4094979             1.2251E-02
       22       3.4339109             1.9529E-02
       23       3.4647785             2.1476E-02
       24       3.5168159             1.1858E-02
       25       3.5705341             2.7394E-02
       26       3.5928068             3.4656E-02
       27       3.6009813             1.9860E-02
       28       3.6315793             2.0136E-03
       29       3.6802260             3.1499E-02
       30       3.7433229             7.6314E-03
       31       3.7601966             1.2954E-02
       32       3.7765877             2.1103E-02
       33       3.8452103             1.8942E-02
       34       3.9533036             1.3928E-02
       35       3.9623107             1.4274E-02
       36       4.0574404             1.8828E-02
       37       4.0767343             6.6557E-03
       38       4.1169714             3.9776E-02
       39       4.1531395             4.2558E-02
       40       4.2492474             1.2943E-01
       41       4.2569002             8.4996E-03
       42       4.3089693             5.7410E-02
       43       4.4307550             1.6959E-01
       44       4.4608538             1.4541E-01
       45       4.5335297             1.1077E-01
       46       4.5858444             1.4772E-01
       47       4.6175220             1.7341E-01
       48       4.6401988             1.7962E-01
       49       4.6792851             1.4460E-01
       50       4.7037047             1.3939E-01
       51       4.7379979             1.4440E-01
       52       4.7436628             1.4527E-01
       53       4.7824263             1.6711E-01
       54       4.7977658             1.0342E-01
       55       4.8422126             1.3632E-01
       56       4.8668843             1.2952E-01
       57       4.9250576             1.5230E-01
       58       4.9534327             1.7002E-01
       59       4.9783057             1.8791E-01
       60       4.9892393             1.5609E-01
       61       5.0474981             1.3259E-01
       62       5.0712280             1.5000E-01
       63       5.0979647             1.3265E-01
       64       5.1070391             1.3607E-01
       65       5.1320963             1.5760E-01
       66       5.1475268             1.1875E-01
       67       5.1655388             1.0965E-01
       68       5.1725597             7.6964E-02
       69       5.1758441             6.3530E-02
       70       5.2135986             9.6888E-02
       71       5.2603166             1.3306E-01
       72       5.2780521             1.3272E-01
       73       5.2877678             1.3631E-01
       74       5.3073099             1.4071E-01
       75       5.3767647             1.1225E-01
       76       5.7225569             4.4490E-01
       77       5.8221535             5.3548E-01
       78       6.0124602             7.2431E-01
       79       6.2185890             9.2932E-01
       80       6.7256040             1.4164E+00

             1             1.7          5.2051E-02                      0

    State    Exc. energy (eV)      Convergence (eV)
        1       0.5638433            -8.9926E-04
        2       1.2836282            -1.0066E-03
        3       1.5701792            -3.0040E-02
        4       1.6064610            -1.6212E-02
        5       1.7866910            -2.4331E-03
        6       1.8808683            -4.4889E-03
        7       2.2025033            -1.8176E-03
        8       2.3456850            -4.1375E-03
        9       2.5233149            -1.6831E-03
       10       2.7566113            -7.9252E-03
       11       2.9170746            -2.4710E-03
       12       2.9643838            -3.0766E-03
       13       3.1245215            -2.9885E-02
       14       3.1535663            -6.6865E-02
       15       3.2042586            -2.2161E-02
       16       3.2274043            -1.8577E-03
       17       3.2316343            -2.7518E-03
       18       3.2342474            -9.9456E-03
       19       3.3783078            -1.1453E-02
       20       3.3924092            -7.8405E-03
       21       3.3992080            -1.0290E-02
       22       3.4229569            -1.0954E-02
       23       3.4567389            -8.0396E-03
       24       3.5116060            -5.2099E-03
       25       3.5557687            -1.4765E-02
       26       3.5802239            -1.2583E-02
       27       3.5938063            -7.1749E-03
       28       3.6309147            -6.6462E-04
       29       3.6685280            -1.1698E-02
[...]
 flops    13 x    13 x    28            326508000       0.0%    100.0%      0.0%
 flops    13 x    13 x    32            392620800       0.0%    100.0%      0.0%
 flops    13 x    13 x     5            486370170       0.0%    100.0%      0.0%
 flops    13 x     5 x    13            494350350       0.0%    100.0%      0.0%
 flops     5 x    13 x    13            494362180       0.0%    100.0%      0.0%
 flops     5 x    28 x     5            556595200       0.0%    100.0%      0.0%
 flops     5 x    32 x     5            644300800       0.0%    100.0%      0.0%
 flops    13 x    13 x    13           1953581188       0.0%    100.0%      0.0%
 flops     5 x    28 x    13           2170721280       0.0%    100.0%      0.0%
 flops    13 x    28 x     5           2170721280       0.0%    100.0%      0.0%
 flops     5 x    32 x    13           2512773120       0.0%    100.0%      0.0%
 flops    13 x    32 x     5           2512773120       0.0%    100.0%      0.0%
 flops    49 x    28 x    49           7744665600       0.0%    100.0%      0.0%
 flops    13 x    28 x    13           8465812992       0.0%    100.0%      0.0%
 flops    49 x    32 x    49           8851046400       0.0%    100.0%      0.0%
 flops    13 x    32 x    13           9799815168       0.0%    100.0%      0.0%
 flops inhomo. stacks                           0       0.0%      0.0%      0.0%
 flops total                        51.868869E+09       0.0%    100.0%      0.0%
 flops max/rank                      3.351411E+09       0.0%    100.0%      0.0%
 matmuls inhomo. stacks                         0       0.0%      0.0%      0.0%
 matmuls total                            7358773       0.0%    100.0%      0.0%
 number of processed stacks               1126243       0.0%    100.0%      0.0%
 average stack size                                     0.0       6.5       0.0
 marketing flops                    53.644915E+09
 -------------------------------------------------------------------------------
 # multiplications                           3454
 max memory usage/rank             384.057344E+06
 # max total images/rank                        1
 # max 3D layers                                1
 # MPI messages exchanged                 3094784
 MPI messages size (bytes):
  total size                        26.319788E+09
  min size                           0.000000E+00
  max size                          25.088000E+03
  average size                       8.504563E+03
 MPI breakdown and total messages size (bytes):
             size <=      128             1561154                        0
       128 < size <=     8192               31010                218699936
      8192 < size <=    32768             1502620              26106724000
     32768 < size <=   131072                   0                        0
    131072 < size <=  4194304                   0                        0
   4194304 < size <= 16777216                   0                        0
  16777216 < size                               0                        0
 -------------------------------------------------------------------------------
 -                                                                             -
 -                      DBCSR MESSAGE PASSING PERFORMANCE                      -
 -                                                                             -
 -------------------------------------------------------------------------------
 ROUTINE             CALLS      AVE VOLUME [Bytes]
 MP_Bcast               63                     12.
 MP_Allreduce        14947                      8.
 MP_Alltoall         58760                  12878.
 MP_ISend           110524                   5699.
 MP_IRecv           110524                   5566.
 -------------------------------------------------------------------------------

 -------------------------------------------------------------------------------
 -                                                                             -
 -                                DBM STATISTICS                               -
 -                                                                             -
 -------------------------------------------------------------------------------
    M  x    N  x    K                                          COUNT     PERCENT
 -------------------------------------------------------------------------------

 -------------------------------------------------------------------------------
 -                                                                             -
 -                                GRID STATISTICS                              -
 -                                                                             -
 -------------------------------------------------------------------------------
 LP    KERNEL             BACKEND                              COUNT     PERCENT
 3     collocate general  CPU                                5441646      27.23%
 3     integrate general  CPU                                4122777      20.63%
 4     collocate general  CPU                                3541622      17.72%
 4     integrate general  CPU                                2804728      14.04%
 2     collocate general  CPU                                2263996      11.33%
 2     integrate general  CPU                                1686446       8.44%
 5     integrate general  CPU                                 108417       0.54%
 0     collocate general  CPU                                   5120       0.03%
 1     integrate general  CPU                                   5120       0.03%
 0     integrate general  CPU                                   2560       0.01%
 -------------------------------------------------------------------------------

 MEMORY| Estimated peak process memory [MiB]                                 367

 -------------------------------------------------------------------------------
 ----                             MULTIGRID INFO                            ----
 -------------------------------------------------------------------------------
 count for grid        1:         443053          cutoff [a.u.]          400.00
 count for grid        2:         330745          cutoff [a.u.]          133.33
 count for grid        3:         245095          cutoff [a.u.]           44.44
 count for grid        4:         194125          cutoff [a.u.]           14.81
 total gridlevel count  :        1213018

 -------------------------------------------------------------------------------
 -                                                                             -
 -                         MESSAGE PASSING PERFORMANCE                         -
 -                                                                             -
 -------------------------------------------------------------------------------

 ROUTINE             CALLS      AVE VOLUME [Bytes]
 MP_Group                5
 MP_Bcast             3851                 146567.
 MP_Allreduce        71488                     74.
 MP_Sync               222
 MP_Alltoall          2690                1324429.
 MP_SendRecv         18774                  30360.
 MP_ISendRecv        14364                  30763.
 MP_Wait             35478
 MP_comm_split         217
 MP_ISend            12495                 110088.
 MP_IRecv            17815                  77216.
 -------------------------------------------------------------------------------


 -------------------------------------------------------------------------------
 -                                                                             -
 -                           R E F E R E N C E S                               -
 -                                                                             -
 -------------------------------------------------------------------------------
 
 CP2K version 2024.1 (Development Version), the CP2K developers group (2024).
 CP2K is freely available from https://www.cp2k.org/ .

 Kuehne,Thomas D.; Iannuzzi,Marcella; Del Ben,Mauro;
 Rybkin,Vladimir V.; Seewald,Patrick; Stein,Frederick; Laino,Teodoro;
 Khaliullin,Rustam Z.; Schuett,Ole; Schiffmann,Florian; Golze,Dorothea;
 Wilhelm,Jan; Chulkov,Sergey; Bani-Hashemian,Mohammad Hossein;
 Weber,Valery; Borstnik,Urban; Taillefumier,Mathieu;
 Jakobovits,Alice Shoshana; Lazzaro,Alfio; Pabst,Hans; Mueller,Tiziano;
 Schade,Robert; Guidon,Manuel; Andermatt,Samuel; Holmberg,Nico;
 Schenter,Gregory K.; Hehn,Anna; Bussy,Augustin; Belleflamme,Fabian;
 Tabacchi,Gloria; Gloess,Andreas; Lass,Michael; Bethune,Iain;
 Mundy,Christopher J.; Plessl,Christian; Watkins,Matt;
 VandeVondele,Joost; Krack,Matthias; Hutter,Juerg. 
 The Journal of Chemical Physics, 152 (19), (2020). 
 CP2K: An electronic structure and molecular dynamics software package -
 Quickstep: Efficient and accurate electronic structure calculations.
 https://doi.org/10.1063/5.0007045

 Goerigk, Lars; Hansen, Andreas; Bauer, Christoph; Ehrlich, Stephan;
 Najibi, Asim; Grimme, Stefan. , 19 (48), (2017). 
 A look at the density functional theory zoo with the advanced GMTKN55 database
 for general main group thermochemistry, kinetics and noncovalent interactions.
 https://doi.org/10.1039/C7CP04913G

 Grimme, S; Bannwarth, C. 
 The Journal of Chemical Physics, 145, 054103 (2016). 
 Ultra-fast computation of electronic spectra for large systems
 by tight-binding based simplified Tamm-Dancoff approximation (sTDA-xTB).
 https://doi.org/10.1063/1.4959605

 Schuett, Ole; Messmer, Peter; Hutter, Juerg; VandeVondele, Joost. 
 Electronic Structure Calculations on Graphics Processing Units, John
 Wiley & Sons, Ltd, 173-190 (2016). 
 GPU-Accelerated Sparse Matrix-Matrix Multiplication for
 Linear Scaling Density Functional Theory.
 https://doi.org/10.1002/9781118670712.ch8

 Heinecke, A; Henry, G; Hutchinson, M; Pabst, H. 
 Proceedings of Intl. Supercomputing Conference, 981-991 (2016). 
 LIBXSMM: Accelerating Small Matrix Multiplications
 by Runtime Code Generation.
 https://doi.org/10.1109/SC.2016.83

 Borstnik, U; VandeVondele, J; Weber, V; Hutter, J. 
 PARALLEL COMPUTING, 40 (5-6), 47-58 (2014). 
 Sparse matrix multiplication: The distributed block-compressed sparse
 row library.
 https://doi.org/10.1016/j.parco.2014.03.012

 Hutter, J; Iannuzzi, M; Schiffmann, F; VandeVondele, J. 
 WIREs Comput Mol Sci., 4 (1), 15-25 (2014). 
 CP2K: atomistic simulations of condensed matter systems.
 https://doi.org/10.1002/wcms.1159

 Grimme, S. The Journal of Chemical Physics, 138, 244104 (2013). 
 A simplified Tamm-Dancoff density functional approach for
 the electronic excitation spectra of very large molecules.
 https://doi.org/10.1063/1.4811331

 Grimme, S; Ehrlich, S; Goerigk, L. 
 JOURNAL OF COMPUTATIONAL CHEMISTRY, 32, 1456 (2011). 
 Effect of the damping function in dispersion corrected density functional theory.
 https://doi.org/10.1002/jcc.21759

 Grimme, S; Antony, J; Ehrlich, S; Krieg, H. 
 JOURNAL OF CHEMICAL PHYSICS, 132 (15), 154104 (2010). 
 A consistent and accurate ab initio parametrization of density
 functional dispersion correction (DFT-D) for the 94 elements H-Pu.
 https://doi.org/10.1063/1.3382344

 VandeVondele, J; Hutter, J. 
 JOURNAL OF CHEMICAL PHYSICS, 127 (11), 114105 (2007). 
 Gaussian basis sets for accurate calculations on molecular systems in
 gas and condensed phases.
 https://doi.org/10.1063/1.2770708

 Krack, M. 
 THEORETICAL CHEMISTRY ACCOUNTS, 114 (1-3), 145-152 (2005). 
 Pseudopotentials for H to Kr optimized for gradient-corrected
 exchange-correlation functionals.
 https://doi.org/10.1007/s00214-005-0655-y

 VandeVondele, J; Krack, M; Mohamed, F; Parrinello, M; Chassaing, T;
 Hutter, J. COMPUTER PHYSICS COMMUNICATIONS, 167 (2), 103-128 (2005). 
 QUICKSTEP: Fast and accurate density functional calculations using a
 mixed Gaussian and plane waves approach.
 https://doi.org/10.1016/j.cpc.2004.12.014

 Frigo, M; Johnson, SG. 
 PROCEEDINGS OF THE IEEE, 93 (2), 216-231 (2005). 
 The design and implementation of FFTW3.
 https://doi.org/10.1109/JPROC.2004.840301

 Iannuzzi, M; Chassaing, T; Wallman, T; Hutter, J. 
 CHIMIA, 59 (7-8), 499-503 (2005). 
 Ground and excited state density functional calculations with the
 Gaussian and augmented-plane-wave method.
 https://doi.org/10.2533/000942905777676164

 VandeVondele, J; Hutter, J. 
 JOURNAL OF CHEMICAL PHYSICS, 118 (10), 4365-4369 (2003). 
 An efficient orbital transformation method for electronic structure
 calculations.
 https://doi.org/10.1063/1.1543154

 Martin,Richard L.. 
 The Journal of Chemical Physics, 118 (11), 4775-4777 (2003). 
 Natural transition orbitals.
 https://doi.org/10.1063/1.1558471

 Hartwigsen, C; Goedecker, S; Hutter, J. 
 PHYSICAL REVIEW B, 58 (7), 3641-3662 (1998). 
 Relativistic separable dual-space Gaussian pseudopotentials from H to Rn.
 https://doi.org/10.1103/PhysRevB.58.3641

 Lippert, G; Hutter, J; Parrinello, M. 
 MOLECULAR PHYSICS, 92 (3), 477-487 (1997). 
 A hybrid Gaussian and plane wave density functional scheme.
 https://doi.org/10.1080/002689797170220

 Perdew, JP; Burke, K; Ernzerhof, M. 
 PHYSICAL REVIEW LETTERS, 77 (18), 3865-3868 (1996). 
 Generalized gradient approximation made simple.
 https://doi.org/10.1103/PhysRevLett.77.3865

 Goedecker, S; Teter, M; Hutter, J. 
 PHYSICAL REVIEW B, 54 (3), 1703-1710 (1996). 
 Separable dual-space Gaussian pseudopotentials.
 https://doi.org/10.1103/PhysRevB.54.1703


 -------------------------------------------------------------------------------
 -                                                                             -
 -                                T I M I N G                                  -
 -                                                                             -
 -------------------------------------------------------------------------------
 SUBROUTINE                       CALLS  ASD         SELF TIME        TOTAL TIME
                                MAXIMUM       AVERAGE  MAXIMUM  AVERAGE  MAXIMUM
 CP2K                                 1  1.0    0.007    0.023   78.781   78.785
 qs_forces                            1  2.0    0.001    0.001   78.452   78.452
 qs_energies                          1  3.0    0.001    0.001   51.061   51.062
 scf_env_do_scf                       1  4.0    0.000    0.000   33.784   33.784
 scf_env_do_scf_inner_loop           47  5.0    0.001    0.004   33.242   33.247
 calculate_rho_elec                  98  7.7    0.027    0.028   30.376   30.379
 qs_rho_update_rho_low               96  6.8    0.000    0.000   29.733   29.735
 grid_collocate_task_list            98  8.7   26.538   27.250   26.538   27.250
 excited_state_energy                 2  3.5    0.000    0.000   26.748   26.755
 integrate_v_rspace                  76  9.1    0.002    0.002   25.256   25.303
 response_equation                    1  4.0    0.000    0.000   25.274   25.275
 linres_solver                        1  5.0    0.001    0.005   25.259   25.259
 apply_op                            25  6.0    0.001    0.001   25.120   25.121
 grid_integrate_task_list            76 10.1   22.042   22.585   22.042   22.585
 rebuild_ks_matrix                   48  6.9    0.000    0.000   18.249   18.253
 qs_ks_build_kohn_sham_matrix        48  7.9    0.005    0.006   18.249   18.253
 qs_ks_update_qs_env                 49  6.0    0.000    0.000   17.802   17.806
 qs_energies_properties               1  4.0    0.000    0.000   16.342   16.343
 tddfpt                               1  5.0    0.001    0.001   16.342   16.343
 sum_up_and_integrate                48  8.9    0.000    0.001   15.613   15.615
 tddfpt_energies                      1  6.0    0.000    0.001   14.748   14.748
 apply_op_2_dft                      24  7.0    0.001    0.001    9.786    9.786
 tddfpt_davidson_solver               2  7.0    0.004    0.005    7.745    7.745
 p_env_update_rho                    24  7.0    0.000    0.000    7.543    7.543
 cp_dbcsr_sm_fm_multiply           2259  9.9    0.025    0.027    5.906    5.922
 fft_wrap_pw1pw2                   2326 11.4    0.019    0.026    4.873    4.958
 density_rs2pw                       98  8.7    0.004    0.004    3.726    4.760
 fft_wrap_pw1pw2_400               1002 12.4    0.134    0.143    4.203    4.263
 fft3d_ps                          2326 13.4    1.409    1.455    4.085    4.169
 tddfpt_compute_Aop_evects            5  8.0    0.000    0.000    3.846    3.848
 tddfpt_print_nto_analysis            1  7.0    0.009    0.011    3.830    3.830
 transfer_rs2pw                     795 10.9    0.006    0.007    2.829    3.827
 dbcsr_multiply_generic            3454 11.5    0.081    0.094    3.249    3.383
 mp_alltoall_d11v                 24459 13.1    2.427    3.003    2.427    3.003
 transfer_rs2pw_400                 100 10.7    0.360    0.425    1.832    2.864
 cp_fm_syevd                        217  9.3    0.001    0.001    2.816    2.844
 mp_waitany                       12488 13.6    1.782    2.816    1.782    2.816
 dbcsr_complete_redistribute       5643 11.9    0.163    0.214    2.739    2.760
 stda_kernel                          5  9.0    0.000    0.001    2.757    2.758
 stda_calculate_kernel              400 10.0    0.011    0.012    2.756    2.758
 copy_dbcsr_to_fm                  2403 10.8    0.019    0.023    2.538    2.684
 tddfpt_write_newtonx_output          1  7.0    0.001    0.006    2.545    2.681
 cp_fm_redistribute_end             217 10.3    1.372    2.667    1.381    2.674
 cp_fm_geeig                         80  8.0    0.004    0.005    2.647    2.665
 cp_fm_syevd_base                   217 10.3    1.283    2.576    1.283    2.576
 mp_alltoall_z22v                  2326 15.4    2.273    2.419    2.273    2.419
 xc_pw_derive                       528 11.5    0.003    0.004    2.295    2.327
 qs_vxc_create                       49  8.9    0.001    0.002    2.255    2.267
 xc_vxc_pw_create                    49  9.9    0.025    0.031    2.254    2.266
 cp_dbcsr_sm_fm_multiply_core      2259 10.9    0.003    0.004    2.115    2.243
 xc_rho_set_and_dset_create          75 10.6    0.050    0.055    2.171    2.214
 potential_pw2rs                     76 10.1    0.004    0.004    2.095    2.144
 cp_fm_write_formatted               82  8.0    0.244    2.102    0.246    2.105
 parallel_gemm_fm                  1872  8.6    0.002    0.002    2.032    2.078
 parallel_gemm_fm_cosma            1872  9.6    2.030    2.077    2.030    2.077
 compute_phase_eigenvectors          80  8.0    0.000    0.000    2.001    2.041
 mp_sum_iv                         2292  8.6    1.846    1.977    1.846    1.977
 tddfpt_orthonormalize_psi1_psi       6  7.8    0.069    0.072    1.959    1.960
 multiply_cannon                   3454 12.5    0.170    0.195    1.600    1.812
 qs_fxc_analytic                     25  8.0    0.001    0.001    1.768    1.773
 transfer_pw2rs                     708 11.6    0.004    0.004    1.737    1.746
 rs_gather_matrices                  76 10.1    0.002    0.003    1.116    1.688
 -------------------------------------------------------------------------------

 The number of warnings for this run is : 0
 
 -------------------------------------------------------------------------------
  **** **** ******  **  PROGRAM ENDED AT                 2025-03-11 08:59:41.496
 ***** ** ***  *** **   PROGRAM RAN ON                               nesh-clk364
 **    ****   ******    PROGRAM RAN BY                                  suphc356
 ***** **    ** ** **   PROGRAM PROCESS ID                                545398
  **** **  *******  **  PROGRAM STOPPED IN /gxfs_work/cau/suphc356/NEWTONX_proje
                                           ct/Pyrazin_crystal/plain_pyrazine/GPW
                                           _PBE_STDA/OD_couplings/OD_TDDFT_STDA_
                                           periodic/TRAJECTORIES_from_state_63_A
                                           GAIN/TRAJ13_nokross_noco/TEMP
