 DBCSR| CPU Multiplication driver                                           XSMM (U)
 DBCSR| Multrec recursion limit                                              512 (U)
 DBCSR| Multiplication stack size                                           1000 (D)
 DBCSR| Maximum elements for images                                    UNLIMITED (U)
 DBCSR| Multiplicative factor virtual images                                   1 (U)
 DBCSR| Use multiplication densification                                       T (D)
 DBCSR| Multiplication size stacks                                             3 (U)
 DBCSR| Use memory pool for CPU allocation                                     F (U)
 DBCSR| Number of 3D layers                                               SINGLE (U)
 DBCSR| Use MPI memory allocation                                              F (U)
 DBCSR| Use RMA algorithm                                                      F (U)
 DBCSR| Use Communication thread                                               T (U)
 DBCSR| Communication thread load                                             87 (D)
 DBCSR| MPI: My process id                                                     0
 DBCSR| MPI: Number of processes                                              16
 DBCSR| OMP: Current number of threads                                         1
 DBCSR| OMP: Max number of threads                                             1
 DBCSR| Split modifier for TAS multiplication algorithm                  1.0E+00 (U)


  **** **** ******  **  PROGRAM STARTED AT               2025-01-05 10:38:29.525
 ***** ** ***  *** **   PROGRAM STARTED ON                           nesh-clk548
 **    ****   ******    PROGRAM STARTED BY                              suphc356
 ***** **    ** ** **   PROGRAM PROCESS ID                               2383539
  **** **  *******  **  PROGRAM STARTED IN /gxfs_work/cau/suphc356/NEWTONX_proje
                                           ct/Pyrazin_molecule/CP2K_GAPW_B3LYP_d
                                           ef2_TZVP/MOLDYN_BA_again/TRAJECTORIES
                                           /TRAJ28/TEMP

 CP2K| version string:                 CP2K version 2024.1 (Development Version)
 CP2K| source code revision number:                                  git:990486a
 CP2K| cp2kflags: omp libint fftw3 libxc libgrpp parallel mpi_f08 scalapack cosm
 CP2K|            a xsmm spglib mkl
 CP2K| is freely available from                            https://www.cp2k.org/
 CP2K| Program compiled at                          Mon Mar 11 08:48:45 CET 2024
 CP2K| Program compiled on                                           nesh-login2
 CP2K| Program compiled for                                                local
 CP2K| Data directory path                 /gxfs_work/cau/suphc356/cp2k_gcc/data
 CP2K| Input file name                                                  cp2k.inp

 GLOBAL| Force Environment number                                              1
 GLOBAL| Basis set file name                                     EMSL_BASIS_SETS
 GLOBAL| Potential file name                                      ALL_POTENTIALS
 GLOBAL| MM Potential file name                                     MM_POTENTIAL
 GLOBAL| Coordinate file name                                      __STD_INPUT__
 GLOBAL| Method name                                                        CP2K
 GLOBAL| Project name                                               testsuite_ad
 GLOBAL| Run type                                                   ENERGY_FORCE
 GLOBAL| FFT library                                                       FFTW3
 GLOBAL| Diagonalization library                                       ScaLAPACK
 GLOBAL| DGEMM library                                                      BLAS
 GLOBAL| Orthonormality check for eigenvectors                          DISABLED
 GLOBAL| Matrix multiplication library                                     COSMA
 GLOBAL| All-to-all communication in single precision                          F
 GLOBAL| FFTs using library dependent lengths                                  F
 GLOBAL| Grid backend                                                       AUTO
 GLOBAL| Global print level                                               MEDIUM
 GLOBAL| MPI I/O enabled                                                       T
 GLOBAL| Total number of message passing processes                            16
 GLOBAL| Number of threads for this process                                    1
 GLOBAL| This output is from process                                           0
 GLOBAL| Stack size for threads created by OpenMP (OMP_STACKSIZE)           256M
 GLOBAL| CPU model name                Intel(R) Xeon(R) Gold 6226R CPU @ 2.90GHz
 GLOBAL| CPUID                                                              1003
 GLOBAL| Compiled for CPUID                                                    0

 *** HINT in environment.F:920 :: The compiler target flags (generic) used ***
 *** to build this binary cannot exploit all extensions of this CPU model  ***
 *** (x86_avx512). Consider compiler target flags as part of FCFLAGS and   ***
 *** CFLAGS (ARCH file).                                                   ***


 MEMORY| system memory details [Kb]
 MEMORY|                        rank 0           min           max       average
 MEMORY| MemTotal            196682748     196682748     196682748     196682748
 MEMORY| MemFree             169738396     169738396     169738396     169738396
 MEMORY| Buffers               1053680       1053680       1053680       1053680
 MEMORY| Cached                1271156       1271156       1271156       1271156
 MEMORY| Slab                  9950648       9950648       9950648       9950648
 MEMORY| SReclaimable           309748        309748        309748        309748
 MEMORY| MemLikelyFree       172372980     172372980     172372980     172372980


 *** Fundamental physical constants (SI units) ***

 *** Literature: B. J. Mohr and B. N. Taylor,
 ***             CODATA recommended values of the fundamental physical
 ***             constants: 2006, Web Version 5.1
 ***             http://physics.nist.gov/constants

 Speed of light in vacuum [m/s]                             2.99792458000000E+08
 Magnetic constant or permeability of vacuum [N/A**2]       1.25663706143592E-06
 Electric constant or permittivity of vacuum [F/m]          8.85418781762039E-12
 Planck constant (h) [J*s]                                  6.62606896000000E-34
 Planck constant (h-bar) [J*s]                              1.05457162825177E-34
 Elementary charge [C]                                      1.60217648700000E-19
 Electron mass [kg]                                         9.10938215000000E-31
 Electron g factor [ ]                                     -2.00231930436220E+00
 Proton mass [kg]                                           1.67262163700000E-27
 Fine-structure constant                                    7.29735253760000E-03
 Rydberg constant [1/m]                                     1.09737315685270E+07
 Avogadro constant [1/mol]                                  6.02214179000000E+23
 Boltzmann constant [J/K]                                   1.38065040000000E-23
 Atomic mass unit [kg]                                      1.66053878200000E-27
 Bohr radius [m]                                            5.29177208590000E-11

 *** Conversion factors ***

 [u] -> [a.u.]                                              1.82288848426455E+03
 [Angstrom] -> [Bohr] = [a.u.]                              1.88972613288564E+00
 [a.u.] = [Bohr] -> [Angstrom]                              5.29177208590000E-01
 [a.u.] -> [s]                                              2.41888432650478E-17
 [a.u.] -> [fs]                                             2.41888432650478E-02
 [a.u.] -> [J]                                              4.35974393937059E-18
 [a.u.] -> [N]                                              8.23872205491840E-08
 [a.u.] -> [K]                                              3.15774647902944E+05
 [a.u.] -> [kJ/mol]                                         2.62549961709828E+03
 [a.u.] -> [kcal/mol]                                       6.27509468713739E+02
 [a.u.] -> [Pa]                                             2.94210107994716E+13
 [a.u.] -> [bar]                                            2.94210107994716E+08
 [a.u.] -> [atm]                                            2.90362800883016E+08
 [a.u.] -> [eV]                                             2.72113838565563E+01
 [a.u.] -> [Hz]                                             6.57968392072181E+15
 [a.u.] -> [1/cm] (wave numbers)                            2.19474631370540E+05
 [a.u./Bohr**2] -> [1/cm]                                   5.14048714338585E+03
 

 CELL_TOP| Volume [angstrom^3]:                                      2744.000000
 CELL_TOP| Vector a [angstrom    14.000     0.000     0.000   |a| =    14.000000
 CELL_TOP| Vector b [angstrom     0.000    14.000     0.000   |b| =    14.000000
 CELL_TOP| Vector c [angstrom     0.000     0.000    14.000   |c| =    14.000000
 CELL_TOP| Angle (b,c), alpha [degree]:                                90.000000
 CELL_TOP| Angle (a,c), beta  [degree]:                                90.000000
 CELL_TOP| Angle (a,b), gamma [degree]:                                90.000000
 CELL_TOP| Numerically orthorhombic:                                         YES
 CELL_TOP| Periodicity                                                      NONE

 CELL| Volume [angstrom^3]:                                          2744.000000
 CELL| Vector a [angstrom]:      14.000     0.000     0.000   |a| =    14.000000
 CELL| Vector b [angstrom]:       0.000    14.000     0.000   |b| =    14.000000
 CELL| Vector c [angstrom]:       0.000     0.000    14.000   |c| =    14.000000
 CELL| Angle (b,c), alpha [degree]:                                    90.000000
 CELL| Angle (a,c), beta  [degree]:                                    90.000000
 CELL| Angle (a,b), gamma [degree]:                                    90.000000
 CELL| Numerically orthorhombic:                                             YES
 CELL| Periodicity                                                          NONE

 CELL_REF| Volume [angstrom^3]:                                      2744.000000
 CELL_REF| Vector a [angstrom    14.000     0.000     0.000   |a| =    14.000000
 CELL_REF| Vector b [angstrom     0.000    14.000     0.000   |b| =    14.000000
 CELL_REF| Vector c [angstrom     0.000     0.000    14.000   |c| =    14.000000
 CELL_REF| Angle (b,c), alpha [degree]:                                90.000000
 CELL_REF| Angle (a,c), beta  [degree]:                                90.000000
 CELL_REF| Angle (a,b), gamma [degree]:                                90.000000
 CELL_REF| Numerically orthorhombic:                                         YES
 CELL_REF| Periodicity                                                      NONE

 *******************************************************************************
 *******************************************************************************
 **                                                                           **
 **     #####                         ##              ##                      **
 **    ##   ##            ##          ##              ##                      **
 **   ##     ##                       ##            ######                    **
 **   ##     ##  ##   ##  ##   #####  ##  ##   ####   ##    #####    #####    **
 **   ##     ##  ##   ##  ##  ##      ## ##   ##      ##   ##   ##  ##   ##   **
 **   ##  ## ##  ##   ##  ##  ##      ####     ###    ##   ######   ######    **
 **    ##  ###   ##   ##  ##  ##      ## ##      ##   ##   ##       ##        **
 **     #######   #####   ##   #####  ##  ##  ####    ##    #####   ##        **
 **           ##                                                    ##        **
 **                                                                           **
 **                                                ... make the atoms dance   **
 **                                                                           **
 **            Copyright (C) by CP2K developers group (2000-2024)             **
 **                      J. Chem. Phys. 152, 194103 (2020)                    **
 **                                                                           **
 *******************************************************************************

 DFT| Spin restricted Kohn-Sham (RKS) calculation                            RKS
 DFT| Multiplicity                                                             1
 DFT| Number of spin states                                                    1
 DFT| Charge                                                                   0
 DFT| Self-interaction correction (SIC)                                       NO
 DFT| Cutoffs: density                                              1.000000E-10
 DFT|          gradient                                             1.000000E-10
 DFT|          tau                                                  1.000000E-10
 DFT|          cutoff_smoothing_range                               0.000000E+00
 DFT| XC density smoothing                                                  NONE
 DFT| XC derivatives                                                          PW

 FUNCTIONAL| BECKE88:
 FUNCTIONAL| A. Becke, Phys. Rev. A 38, 3098 (1988) {LDA version}               
 FUNCTIONAL| LYP:
 FUNCTIONAL| C. Lee, W. Yang, R.G. Parr, Phys. Rev. B, 37, 785 (1988) {LDA versi
 FUNCTIONAL| on}                                                                
 FUNCTIONAL| VWN:
 FUNCTIONAL| S. H. Vosko, L. Wilk and M. Nusair, Can. J. Phys. 58, 1200 (1980) {
 FUNCTIONAL| LDA version}                                                       
 FUNCTIONAL| XALPHA:
 FUNCTIONAL| Dirac/Slater local exchange; parameter=  0.666 {LDA}               

 vdW POTENTIAL|                                                   Pair Potential
 vdW POTENTIAL|          DFT-D3 (Version 3.1)
 vdW POTENTIAL|          Potential Form: S. Grimme et al, JCP 132: 154104 (2010)
 vdW POTENTIAL|          Zero Damping
 vdW POTENTIAL|          Cutoff Radius [Bohr]:                             37.79
 vdW POTENTIAL|          s6 Scaling Factor:                               1.0000
 vdW POTENTIAL|          sr6 Scaling Factor:                              1.2610
 vdW POTENTIAL|          s8 Scaling Factor:                               1.7030
 vdW POTENTIAL|          Cutoff for CN calculation:                   0.1000E-05

 QS| Method:                                                                GAPW
 QS| Density plane wave grid type                        NON-SPHERICAL FULLSPACE
 QS| Number of grid levels:                                                    4
 QS| Density cutoff [a.u.]:                                                200.0
 QS| Multi grid cutoff [a.u.]: 1) grid level                               200.0
 QS|                           2) grid level                                66.7
 QS|                           3) grid level                                22.2
 QS|                           4) grid level                                 7.4
 QS| Grid level progression factor:                                          3.0
 QS| Relative density cutoff [a.u.]:                                        30.0
 QS| Interaction thresholds: eps_pgf_orb:                                1.0E-07
 QS|                         eps_filter_matrix:                          0.0E+00
 QS|                         eps_core_charge:                            1.0E-16
 QS|                         eps_rho_gspace:                             1.0E-14
 QS|                         eps_rho_rspace:                             1.0E-14
 QS|                         eps_gvg_rspace:                             1.0E-07
 QS|                         eps_ppl:                                    1.0E-02
 QS|                         eps_ppnl:                                   1.0E-09
 QS| GAPW|      One center basis extended with primitives (small:s)
 QS| GAPW|                   eps_fit:                                    1.0E-04
 QS| GAPW|                   eps_iso:                                    1.0E-12
 QS| GAPW|                   eps_svd:                                    1.0E-08
 QS| GAPW|                   eps_cpc:                                    1.0E-14
 QS| GAPW|   atom-r-grid: quadrature:                                     GC_LOG
 QS| GAPW|      atom-s-grid:  max l :                                          6
 QS| GAPW|      max_l_rho0 :                                                   4


 ATOMIC KIND INFORMATION

  1. Atomic kind: n                                     Number of atoms:       2

     Orbital Basis Set                                        Ahlrichs-def2-TZVP

       Number of orbital shell sets:                                          11
       Number of orbital shells:                                              11
       Number of primitive Cartesian functions:                               20
       Number of Cartesian basis functions:                                   36
       Number of spherical basis functions:                                   31
       Norm type:                                                              2

       Normalised Cartesian orbitals:

                        Set   Shell   Orbital            Exponent    Coefficient

                          1       1    1s            19730.800647       0.695604
                                                      2957.895874       1.298610
                                                       673.221336       2.219088
                                                       190.682495       3.463661
                                                        62.295442       4.696756
                                                        22.654161       4.952251

                          2       1    1s                8.979148       2.388068
                                                         3.686300       0.733788

                          3       1    1s                0.846601       0.629027

                          4       1    1s                0.336471       0.314863

                          5       1    1s                0.136477       0.160031

                          6       1    1px              49.200381       2.126481
                                                        11.346791       2.327937
                                                         3.427397       2.048573
                                                         1.178553       1.260732
                          6       1    1py              49.200381       2.126481
                                                        11.346791       2.327937
                                                         3.427397       2.048573
                                                         1.178553       1.260732
                          6       1    1pz              49.200381       2.126481
                                                        11.346791       2.327937
                                                         3.427397       2.048573
                                                         1.178553       1.260732

                          7       1    1px               0.416422       0.476823
                          7       1    1py               0.416422       0.476823
                          7       1    1pz               0.416422       0.476823

                          8       1    1px               0.142608       0.124917
                          8       1    1py               0.142608       0.124917
                          8       1    1pz               0.142608       0.124917

                          9       1    1dx2              1.654000       3.970513
                          9       1    1dxy              1.654000       6.877130
                          9       1    1dxz              1.654000       6.877130
                          9       1    1dy2              1.654000       3.970513
                          9       1    1dyz              1.654000       6.877130
                          9       1    1dz2              1.654000       3.970513

                         10       1    1dx2              0.469000       0.437484
                         10       1    1dxy              0.469000       0.757744
                         10       1    1dxz              0.469000       0.757744
                         10       1    1dy2              0.469000       0.437484
                         10       1    1dyz              0.469000       0.757744
                         10       1    1dz2              0.469000       0.437484

                         11       1    1fx3              1.093000       1.798249
                         11       1    1fx2y             1.093000       4.021007
                         11       1    1fx2z             1.093000       4.021007
                         11       1    1fxy2             1.093000       4.021007
                         11       1    1fxyz             1.093000       6.964588
                         11       1    1fxz2             1.093000       4.021007
                         11       1    1fy3              1.093000       1.798249
                         11       1    1fy2z             1.093000       4.021007
                         11       1    1fyz2             1.093000       4.021007
                         11       1    1fz3              1.093000       1.798249

       Atomic covalent radius [Angstrom]:                                  0.750

       Atomic van der Waals radius [Angstrom]:                             1.550

     The atoms of this atomic kind are PAW atoms (GAPW):
       Hard Gaussian function radius:                                      1.400
       Rho0 radius:                                                        1.400
       Maximum GTO radius used for PAW projector construction:            24.566

     GAPW Soft Basis Set                                 Ahlrichs-def2-TZVP_soft

       Number of orbital shell sets:                                          11
       Number of orbital shells:                                              11
       Number of primitive Cartesian functions:                               11
       Number of Cartesian basis functions:                                   36
       Number of spherical basis functions:                                   31
       Norm type:                                                              2

       Normalised Cartesian orbitals:

                        Set   Shell   Orbital            Exponent    Coefficient

                          1       1    1s         

                          2       1    1s                3.686300       0.733788

                          3       1    1s                0.846601       0.629027

                          4       1    1s                0.336471       0.314863

                          5       1    1s                0.136477       0.160031

                          6       1    1px               3.427397       2.048573
                                                         1.178553       1.260732
                          6       1    1py               3.427397       2.048573
                                                         1.178553       1.260732
                          6       1    1pz               3.427397       2.048573
                                                         1.178553       1.260732

                          7       1    1px               0.416422       0.476823
                          7       1    1py               0.416422       0.476823
                          7       1    1pz               0.416422       0.476823

                          8       1    1px               0.142608       0.124917
                          8       1    1py               0.142608       0.124917
                          8       1    1pz               0.142608       0.124917

                          9       1    1dx2              1.654000       3.970513
                          9       1    1dxy              1.654000       6.877130
                          9       1    1dxz              1.654000       6.877130
                          9       1    1dy2              1.654000       3.970513
                          9       1    1dyz              1.654000       6.877130
                          9       1    1dz2              1.654000       3.970513

                         10       1    1dx2              0.469000       0.437484
                         10       1    1dxy              0.469000       0.757744
                         10       1    1dxz              0.469000       0.757744
                         10       1    1dy2              0.469000       0.437484
                         10       1    1dyz              0.469000       0.757744
                         10       1    1dz2              0.469000       0.437484

                         11       1    1fx3              1.093000       1.798249
                         11       1    1fx2y             1.093000       4.021007
                         11       1    1fx2z             1.093000       4.021007
                         11       1    1fxy2             1.093000       4.021007
                         11       1    1fxyz             1.093000       6.964588
                         11       1    1fxz2             1.093000       4.021007
                         11       1    1fy3              1.093000       1.798249
                         11       1    1fy2z             1.093000       4.021007
                         11       1    1fyz2             1.093000       4.021007
                         11       1    1fz3              1.093000       1.798249

     AE Potential information for                                            ALL

       Description:                                       All-electron potential
                                          Krack, Parrinello, PCCP 2, 2105 (2000)

       Gaussian exponent of the core charge distribution:               5.979100
       Electronic configuration (s p d ...):                           4   3   0

  2. Atomic kind: c                                     Number of atoms:       4

     Orbital Basis Set                                        Ahlrichs-def2-TZVP

       Number of orbital shell sets:                                          11
       Number of orbital shells:                                              11
       Number of primitive Cartesian functions:                               20
       Number of Cartesian basis functions:                                   36
       Number of spherical basis functions:                                   31
       Norm type:                                                              2

       Normalised Cartesian orbitals:

                        Set   Shell   Orbital            Exponent    Coefficient

                          1       1    1s            13575.349682       0.543591
                                                      2035.233368       1.014554
                                                       463.225624       1.731573
                                                       131.200196       2.691038
                                                        42.853016       3.604455
                                                        15.584186       3.702556

                          2       1    1s                6.206714       1.838354
                                                         2.576490       0.544758

                          3       1    1s                0.576963       0.471815

                          4       1    1s                0.229728       0.236494

                          5       1    1s                0.095164       0.122114

                          6       1    1px              34.697232       1.359665
                                                         7.958262       1.451259
                                                         2.378083       1.270923
                                                         0.814332       0.802572
                          6       1    1py              34.697232       1.359665
                                                         7.958262       1.451259
                                                         2.378083       1.270923
                                                         0.814332       0.802572
                          6       1    1pz              34.697232       1.359665
                                                         7.958262       1.451259
                                                         2.378083       1.270923
                                                         0.814332       0.802572

                          7       1    1px               0.288875       0.301876
                          7       1    1py               0.288875       0.301876
                          7       1    1pz               0.288875       0.301876

                          8       1    1px               0.100568       0.080727
                          8       1    1py               0.100568       0.080727
                          8       1    1pz               0.100568       0.080727

                          9       1    1dx2              1.097000       1.935401
                          9       1    1dxy              1.097000       3.352214
                          9       1    1dxz              1.097000       3.352214
                          9       1    1dy2              1.097000       1.935401
                          9       1    1dyz              1.097000       3.352214
                          9       1    1dz2              1.097000       1.935401

                         10       1    1dx2              0.318000       0.221644
                         10       1    1dxy              0.318000       0.383899
                         10       1    1dxz              0.318000       0.383899
                         10       1    1dy2              0.318000       0.221644
                         10       1    1dyz              0.318000       0.383899
                         10       1    1dz2              0.318000       0.221644

                         11       1    1fx3              0.761000       0.796288
                         11       1    1fx2y             0.761000       1.780553
                         11       1    1fx2z             0.761000       1.780553
                         11       1    1fxy2             0.761000       1.780553
                         11       1    1fxyz             0.761000       3.084008
                         11       1    1fxz2             0.761000       1.780553
                         11       1    1fy3              0.761000       0.796288
                         11       1    1fy2z             0.761000       1.780553
                         11       1    1fyz2             0.761000       1.780553
                         11       1    1fz3              0.761000       0.796288

       Atomic covalent radius [Angstrom]:                                  0.770

       Atomic van der Waals radius [Angstrom]:                             1.700

     The atoms of this atomic kind are PAW atoms (GAPW):
       Hard Gaussian function radius:                                      1.520
       Rho0 radius:                                                        1.520
       Maximum GTO radius used for PAW projector construction:            24.566

     GAPW Soft Basis Set                                 Ahlrichs-def2-TZVP_soft

       Number of orbital shell sets:                                          11
       Number of orbital shells:                                              11
       Number of primitive Cartesian functions:                               11
       Number of Cartesian basis functions:                                   36
       Number of spherical basis functions:                                   31
       Norm type:                                                              2

       Normalised Cartesian orbitals:

                        Set   Shell   Orbital            Exponent    Coefficient

                          1       1    1s         

                          2       1    1s                2.576490       0.544758

                          3       1    1s                0.576963       0.471815

                          4       1    1s                0.229728       0.236494

                          5       1    1s                0.095164       0.122114

                          6       1    1px               2.378083       1.270923
                                                         0.814332       0.802572
                          6       1    1py               2.378083       1.270923
                                                         0.814332       0.802572
                          6       1    1pz               2.378083       1.270923
                                                         0.814332       0.802572

                          7       1    1px               0.288875       0.301876
                          7       1    1py               0.288875       0.301876
                          7       1    1pz               0.288875       0.301876

                          8       1    1px               0.100568       0.080727
                          8       1    1py               0.100568       0.080727
                          8       1    1pz               0.100568       0.080727

                          9       1    1dx2              1.097000       1.935401
                          9       1    1dxy              1.097000       3.352214
                          9       1    1dxz              1.097000       3.352214
                          9       1    1dy2              1.097000       1.935401
                          9       1    1dyz              1.097000       3.352214
                          9       1    1dz2              1.097000       1.935401

                         10       1    1dx2              0.318000       0.221644
                         10       1    1dxy              0.318000       0.383899
                         10       1    1dxz              0.318000       0.383899
                         10       1    1dy2              0.318000       0.221644
                         10       1    1dyz              0.318000       0.383899
                         10       1    1dz2              0.318000       0.221644

                         11       1    1fx3              0.761000       0.796288
                         11       1    1fx2y             0.761000       1.780553
                         11       1    1fx2z             0.761000       1.780553
                         11       1    1fxy2             0.761000       1.780553
                         11       1    1fxyz             0.761000       3.084008
                         11       1    1fxz2             0.761000       1.780553
                         11       1    1fy3              0.761000       0.796288
                         11       1    1fy2z             0.761000       1.780553
                         11       1    1fyz2             0.761000       1.780553
                         11       1    1fz3              0.761000       0.796288

     AE Potential information for                                            ALL

       Description:                                       All-electron potential
                                          Krack, Parrinello, PCCP 2, 2105 (2000)

       Gaussian exponent of the core charge distribution:               4.109048
       Electronic configuration (s p d ...):                           4   2   0

  3. Atomic kind: h                                     Number of atoms:       4

     Orbital Basis Set                                        Ahlrichs-def2-TZVP

       Number of orbital shell sets:                                           4
       Number of orbital shells:                                               4
       Number of primitive Cartesian functions:                                6
       Number of Cartesian basis functions:                                    6
       Number of spherical basis functions:                                    6
       Norm type:                                                              2

       Normalised Cartesian orbitals:

                        Set   Shell   Orbital            Exponent    Coefficient

                          1       1    1s               34.061341       0.255630
                                                         5.123575       0.461360
                                                         1.164663       0.681121

                          2       1    1s                0.327230       0.308355

                          3       1    1s                0.103072       0.129648

                          4       1    1px               0.800000       1.078456
                          4       1    1py               0.800000       1.078456
                          4       1    1pz               0.800000       1.078456

       Atomic covalent radius [Angstrom]:                                  0.320

       Atomic van der Waals radius [Angstrom]:                             1.090

     The atoms of this atomic kind are PAW atoms (GAPW):
       Hard Gaussian function radius:                                      1.000
       Rho0 radius:                                                        1.000
       Maximum GTO radius used for PAW projector construction:            24.566

     GAPW Soft Basis Set                                 Ahlrichs-def2-TZVP_soft

       Number of orbital shell sets:                                           4
       Number of orbital shells:                                               4
       Number of primitive Cartesian functions:                                5
       Number of Cartesian basis functions:                                    6
       Number of spherical basis functions:                                    6
       Norm type:                                                              2

       Normalised Cartesian orbitals:

                        Set   Shell   Orbital            Exponent    Coefficient

                          1       1    1s                5.123575       0.461360
                                                         1.164663       0.681121

                          2       1    1s                0.327230       0.308355

                          3       1    1s                0.103072       0.129648

                          4       1    1px               0.800000       1.078456
                          4       1    1py               0.800000       1.078456
                          4       1    1pz               0.800000       1.078456

     AE Potential information for                                            ALL

       Description:                                       All-electron potential
                                          Krack, Parrinello, PCCP 2, 2105 (2000)

       Gaussian exponent of the core charge distribution:              12.500000
       Electronic configuration (s p d ...):                           1   0   0


 MOLECULE KIND INFORMATION


 All atoms are their own molecule, skipping detailed information


 TOTAL NUMBERS AND MAXIMUM NUMBERS

  Total number of            - Atomic kinds:                                   3
                             - Atoms:                                         10
                             - Shell sets:                                    82
                             - Shells:                                        82
                             - Primitive Cartesian functions:                144
                             - Cartesian basis functions:                    240
                             - Spherical basis functions:                    210

  Maximum angular momentum of the orbital basis functions:                     3


 MODULE QUICKSTEP: ATOMIC COORDINATES IN ANGSTROM

   Atom Kind Element         X             Y             Z       Z(eff)     Mass
      1    1 n     7      6.907445      8.265498      7.498256   7.0000  14.0067
      2    1 n     7      6.983248      6.117724      6.180274   7.0000  14.0067
      3    2 c     6      6.792106      7.185045      8.354178   6.0000  12.0107
      4    2 c     6      6.839123      5.973284      7.430174   6.0000  12.0107
      5    2 c     6      6.835237      8.344813      6.190391   6.0000  12.0107
      6    2 c     6      6.938629      7.156433      5.432333   6.0000  12.0107
      7    3 h     1      6.622350      7.457749      9.435754   1.0000   1.0079
      8    3 h     1      6.611506      4.840242      7.873828   1.0000   1.0079
      9    3 h     1      6.811171      9.159758      5.459306   1.0000   1.0079
     10    3 h     1      7.388494      7.147326      4.564246   1.0000   1.0079



 SCF PARAMETERS         Density guess:                                   RESTART
                        --------------------------------------------------------
                        max_scf:                                              50
                        max_scf_history:                                       0
                        max_diis:                                              4
                        --------------------------------------------------------
                        eps_scf:                                        1.00E-08
                        eps_scf_history:                                0.00E+00
                        eps_diis:                                       1.00E-01
                        eps_eigval:                                     1.00E-05
                        --------------------------------------------------------
                        level_shift [a.u.]:                             0.000000
                        --------------------------------------------------------
                        Outer loop SCF in use 
                        No variables optimised in outer loop
                        eps_scf                                         1.00E-08
                        max_scf                                              900
                        No outer loop optimization
                        step_size                                       5.00E-01

 PW_GRID| Information for grid number                                          1
 PW_GRID| Grid distributed over                                    16 processors
 PW_GRID| Real space group dimensions                                    16    1
 PW_GRID| the grid is blocked:                                                NO
 PW_GRID| Cutoff [a.u.]                                                    400.0
 PW_GRID| spherical cutoff:                                                   NO
 PW_GRID|   Bounds   1           -120     119                Points:         240
 PW_GRID|   Bounds   2           -120     119                Points:         240
 PW_GRID|   Bounds   3           -120     119                Points:         240
 PW_GRID| Volume element (a.u.^3)  0.1340E-02     Volume (a.u.^3)     18517.4301
 PW_GRID| Grid span                                                    FULLSPACE
 PW_GRID|   Distribution                         Average         Max         Min
 PW_GRID|   G-Vectors                           864000.0      864000      864000
 PW_GRID|   G-Rays                                3600.0        3600        3600
 PW_GRID|   Real Space Points                   864000.0      864000      864000

 PW_GRID| Information for grid number                                          2
 PW_GRID| Number of the reference grid                                         1
 PW_GRID| Grid distributed over                                    16 processors
 PW_GRID| Real space group dimensions                                    16    1
 PW_GRID| the grid is blocked:                                                NO
 PW_GRID| Cutoff [a.u.]                                                    200.0
 PW_GRID| spherical cutoff:                                                   NO
 PW_GRID|   Bounds   1            -90      89                Points:         180
 PW_GRID|   Bounds   2            -90      89                Points:         180
 PW_GRID|   Bounds   3            -90      89                Points:         180
 PW_GRID| Volume element (a.u.^3)  0.3175E-02     Volume (a.u.^3)     18517.4301
 PW_GRID| Grid span                                                    FULLSPACE
 PW_GRID|   Distribution                         Average         Max         Min
 PW_GRID|   G-Vectors                           364500.0      364680      364320
 PW_GRID|   G-Rays                                2025.0        2026        2024
 PW_GRID|   Real Space Points                   364500.0      388800      356400

 PW_GRID| Information for grid number                                          3
 PW_GRID| Number of the reference grid                                         2
 PW_GRID| Grid distributed over                                    16 processors
 PW_GRID| Real space group dimensions                                    16    1
 PW_GRID| the grid is blocked:                                                NO
 PW_GRID| Cutoff [a.u.]                                                     66.7
 PW_GRID| spherical cutoff:                                                   NO
 PW_GRID|   Bounds   1            -50      49                Points:         100
 PW_GRID|   Bounds   2            -50      49                Points:         100
 PW_GRID|   Bounds   3            -50      49                Points:         100
 PW_GRID| Volume element (a.u.^3)  0.1852E-01     Volume (a.u.^3)     18517.4301
 PW_GRID| Grid span                                                    FULLSPACE
 PW_GRID|   Distribution                         Average         Max         Min
 PW_GRID|   G-Vectors                            62500.0       62600       62400
 PW_GRID|   G-Rays                                 625.0         626         624
 PW_GRID|   Real Space Points                    62500.0       70000       60000

 PW_GRID| Information for grid number                                          4
 PW_GRID| Number of the reference grid                                         2
 PW_GRID| Grid distributed over                                    16 processors
 PW_GRID| Real space group dimensions                                    16    1
 PW_GRID| the grid is blocked:                                                NO
 PW_GRID| Cutoff [a.u.]                                                     22.2
 PW_GRID| spherical cutoff:                                                   NO
 PW_GRID|   Bounds   1            -30      29                Points:          60
 PW_GRID|   Bounds   2            -30      29                Points:          60
 PW_GRID|   Bounds   3            -30      29                Points:          60
 PW_GRID| Volume element (a.u.^3)  0.8573E-01     Volume (a.u.^3)     18517.4301
 PW_GRID| Grid span                                                    FULLSPACE
 PW_GRID|   Distribution                         Average         Max         Min
 PW_GRID|   G-Vectors                            13500.0       13560       13440
 PW_GRID|   G-Rays                                 225.0         226         224
 PW_GRID|   Real Space Points                    13500.0       14400       10800

 PW_GRID| Information for grid number                                          5
 PW_GRID| Number of the reference grid                                         2
 PW_GRID| Grid distributed over                                    16 processors
 PW_GRID| Real space group dimensions                                    16    1
 PW_GRID| the grid is blocked:                                                NO
 PW_GRID| Cutoff [a.u.]                                                      7.4
 PW_GRID| spherical cutoff:                                                   NO
 PW_GRID|   Bounds   1            -18      17                Points:          36
 PW_GRID|   Bounds   2            -18      17                Points:          36
 PW_GRID|   Bounds   3            -18      17                Points:          36
 PW_GRID| Volume element (a.u.^3)  0.3969         Volume (a.u.^3)     18517.4301
 PW_GRID| Grid span                                                    FULLSPACE
 PW_GRID|   Distribution                         Average         Max         Min
 PW_GRID|   G-Vectors                             2916.0        2952        2880
 PW_GRID|   G-Rays                                  81.0          82          80
 PW_GRID|   Real Space Points                     2916.0        3888        2592

 POISSON| Solver                                          Martyna-Tuckerman (MT)
 POISSON| MT| Alpha                                                        7.000
 POISSON| MT| Relative cutoff                                                2.0
 POISSON| Periodicity                                                       NONE

 RS_GRID| Information for grid number                                          2
 RS_GRID|   Bounds   1            -90      89                Points:         180
 RS_GRID|   Bounds   2            -90      89                Points:         180
 RS_GRID|   Bounds   3            -90      89                Points:         180
 RS_GRID| Real space distribution over                                  4 groups
 RS_GRID| Real space distribution along direction                              2
 RS_GRID| Border size                                                         31
 RS_GRID| Real space distribution over                                  4 groups
 RS_GRID| Real space distribution along direction                              3
 RS_GRID| Border size                                                         31
 RS_GRID|   Distribution                         Average         Max         Min
 RS_GRID|   Planes                                 107.0         107         107
 RS_GRID|   Distribution                         Average         Max         Min
 RS_GRID|   Planes                                 107.0         107         107

 RS_GRID| Information for grid number                                          3
 RS_GRID|   Bounds   1            -50      49                Points:         100
 RS_GRID|   Bounds   2            -50      49                Points:         100
 RS_GRID|   Bounds   3            -50      49                Points:         100
 RS_GRID| Real space fully replicated
 RS_GRID| Group size                                                           1

 RS_GRID| Information for grid number                                          4
 RS_GRID|   Bounds   1            -30      29                Points:          60
 RS_GRID|   Bounds   2            -30      29                Points:          60
 RS_GRID|   Bounds   3            -30      29                Points:          60
 RS_GRID| Real space fully replicated
 RS_GRID| Group size                                                           1

 RS_GRID| Information for grid number                                          5
 RS_GRID|   Bounds   1            -18      17                Points:          36
 RS_GRID|   Bounds   2            -18      17                Points:          36
 RS_GRID|   Bounds   3            -18      17                Points:          36
 RS_GRID| Real space fully replicated
 RS_GRID| Group size                                                           1

  HFX_INFO| Replica ID:                                                        1
  HFX_INFO| FRACTION:                                               0.2000000000
  HFX_INFO| Interaction Potential:                                       COULOMB
  HFX_INFO| EPS_SCHWARZ:                                                 1.0E-10
  HFX_INFO| EPS_SCHWARZ_FORCES                                           1.0E-08
  HFX_INFO| EPS_STORAGE_SCALING:                                         1.0E+00
  HFX_INFO| NBINS:                                                            64
  HFX_INFO| BLOCK_SIZE:                                                        1
  HFX_INFO| Number of periodic shells considered:                           NONE
  HFX_INFO| Number of periodic cells considered:                            NONE


 Number of electrons:                                                         42
 Number of occupied orbitals:                                                 21
 Number of molecular orbitals:                                                21

 Number of orbital functions:                                                210
 Number of independent orbital functions:                                    210

 Extrapolation method: initial_guess


 SCF WAVEFUNCTION OPTIMIZATION

  ----------------------------------- OT ---------------------------------------
  Minimizer      : DIIS                : direct inversion
                                         in the iterative subspace
                                         using   7 DIIS vectors
                                         safer DIIS on
  Preconditioner : FULL_ALL            : diagonalization, state selective
  Precond_solver : DEFAULT
  stepsize       :    0.15000000                  energy_gap     :    0.08000000
  eps_taylor     :   0.10000E-15                  max_taylor     :             4
  ----------------------------------- OT ---------------------------------------

  Step     Update method      Time    Convergence         Total energy    Change
  ------------------------------------------------------------------------------

  HFX_MEM_INFO| Est. max. program size before HFX [MiB]:                     646
  HFX_MEM_INFO| Number of cart. primitive ERI's calculated:           1719303214
  HFX_MEM_INFO| Number of sph. ERI's calculated:                       315804137
  HFX_MEM_INFO| Number of sph. ERI's stored in-core:                   315804137
  HFX_MEM_INFO| Number of sph. ERI's stored on disk:                           0
  HFX_MEM_INFO| Number of sph. ERI's calculated on the fly:                    0
  HFX_MEM_INFO| Total memory consumption ERI's RAM [MiB]:                    939
  HFX_MEM_INFO| Whereof max-vals [MiB]:                                        5
  HFX_MEM_INFO| Total compression factor ERI's RAM:                         2.57
  HFX_MEM_INFO| Total memory consumption ERI's disk [MiB]:                     0
  HFX_MEM_INFO| Total compression factor ERI's disk:                        0.00
  HFX_MEM_INFO| Size of density/Fock matrix [MiB]:                             0
  HFX_MEM_INFO| Size of buffers [MiB]:                                         0
  HFX_MEM_INFO| Est. max. program size after HFX  [MiB]:                     702

     1 OT DIIS     0.15E+00    5.8     0.01295587      -264.0687129909 -2.64E+02
     2 OT DIIS     0.15E+00    1.0     0.00597358      -264.1459548330 -7.72E-02
     3 OT DIIS     0.15E+00    1.0     0.00396861      -264.1622754371 -1.63E-02
     4 OT DIIS     0.15E+00    1.0     0.00054531      -264.1655517485 -3.28E-03
     5 OT DIIS     0.15E+00    1.0     0.00022866      -264.1656530837 -1.01E-04
     6 OT DIIS     0.15E+00    1.0     0.00008801      -264.1656753971 -2.23E-05
     7 OT DIIS     0.15E+00    1.0     0.00003603      -264.1656793888 -3.99E-06
     8 OT DIIS     0.15E+00    1.0     0.00001628      -264.1656799081 -5.19E-07
     9 OT DIIS     0.15E+00    1.0     0.00000546      -264.1656800049 -9.69E-08
    10 OT DIIS     0.15E+00    1.0     0.00000176      -264.1656800179 -1.30E-08
    11 OT DIIS     0.15E+00    1.0     0.00000081      -264.1656800193 -1.40E-09
    12 OT DIIS     0.15E+00    1.0     0.00000044      -264.1656800195 -1.99E-10
    13 OT DIIS     0.15E+00    1.0     0.00000019      -264.1656800196 -5.38E-11
    14 OT DIIS     0.15E+00    1.0     0.00000006      -264.1656800196 -1.35E-11
    15 OT DIIS     0.15E+00    1.0     0.00000003      -264.1656800196  5.12E-13
    16 OT DIIS     0.15E+00    1.0     0.00000001      -264.1656800196 -8.36E-12
    17 OT DIIS     0.15E+00    1.0     6.9034E-09      -264.1656800196 -5.97E-12

  *** SCF run converged in    17 steps ***


  Electronic density on regular grids:        -30.6430276034       11.3569723966
  Core density on regular grids:               42.0000000000       -0.0000000000
  Hard and soft densities (Lebedev):          -97.1288845002      -85.7719121023
  Total Rho_soft + Rho1_hard - Rho1_soft      -42.0000000013
  Total charge density (r-space):              -0.0000000013
  Total Rho_soft + Rho0_soft (g-space):        -0.0000000267

  Overlap energy of the core charge distribution:               0.00002076365945
  Self energy of the core charge distribution:               -217.69203579805162
  Core Hamiltonian energy:                                    -41.82356373556691
  Hartree energy:                                             109.70437818182941
  Exchange-correlation energy:                                -11.20944658723967
  Hartree-Fock Exchange energy:                                -7.05521081878917
  Dispersion energy:                                           -0.00377979809519

  GAPW| Exc from hard and soft atomic rho1:                   -18.55425615826247
  GAPW| local Eh = 1 center integrals:                        -77.53178606910666

  Total energy:                                              -264.16568001962287

  outer SCF iter =    1 RMS gradient =   0.69E-08 energy =       -264.1656800196
  outer SCF loop converged in   1 iterations or   17 steps


 !-----------------------------------------------------------------------------!
                     Mulliken Population Analysis

 #  Atom  Element  Kind  Atomic population                           Net charge
       1     n        1          7.219264                             -0.219264
       2     n        1          7.141686                             -0.141686
       3     c        2          6.042925                             -0.042925
       4     c        2          6.049869                             -0.049869
       5     c        2          6.023314                             -0.023314
       6     c        2          6.017247                             -0.017247
       7     h        3          0.839304                              0.160696
       8     h        3          0.897734                              0.102266
       9     h        3          0.889357                              0.110643
      10     h        3          0.879299                              0.120701
 # Total charge                             42.000000                 -0.000000

 !-----------------------------------------------------------------------------!

 !-----------------------------------------------------------------------------!
                           Hirshfeld Charges

  #Atom  Element  Kind  Ref Charge     Population                    Net charge
      1       n      1       7.000          7.313                        -0.313
      2       n      1       7.000          7.275                        -0.275
      3       c      2       6.000          6.331                        -0.331
      4       c      2       6.000          6.344                        -0.344
      5       c      2       6.000          6.339                        -0.339
      6       c      2       6.000          6.345                        -0.345
      7       h      3       1.000          0.493                         0.507
      8       h      3       1.000          0.524                         0.476
      9       h      3       1.000          0.511                         0.489
     10       h      3       1.000          0.513                         0.487

  Total Charge                                                            0.013
 !-----------------------------------------------------------------------------!

 *******************************************************************************
 **                                                                           **
 **         ######## #######   #######   ######## #######  ########           **
 **            ##    ##     ## ##     ## ##       ##   ##     ##              **
 **            ##    ##     ## ##     ## ######   #######     ##              **
 **            ##    ##     ## ##     ## ##       ##          ##              **
 **            ##    #######   #######   ##       ##          ##              **
 **                                                                           **
 *******************************************************************************
 KERNEL|                                                                    FULL
 FUNCTIONAL| BECKE88:
 FUNCTIONAL| A. Becke, Phys. Rev. A 38, 3098 (1988) {LDA version}               
 FUNCTIONAL| LYP:
 FUNCTIONAL| C. Lee, W. Yang, R.G. Parr, Phys. Rev. B, 37, 785 (1988) {LDA versi
 FUNCTIONAL| on}                                                                
 FUNCTIONAL| VWN:
 FUNCTIONAL| S. H. Vosko, L. Wilk and M. Nusair, Can. J. Phys. 58, 1200 (1980) {
 FUNCTIONAL| LDA version}                                                       
 FUNCTIONAL| XALPHA:
 FUNCTIONAL| Dirac/Slater local exchange; parameter=  0.666 {LDA}               
 KERNEL|                                                          Exact Exchange
 KERNEL| Spin symmetry of excitations                                    Singlet
 TDDFPT| Number of states calculated                                           9
 TDDFPT| Number of Davidson iterations                                       100
 TDDFPT| Davidson iteration convergence                                0.367E-09
 TDDFPT| Max. number of Krylov space vectors                                5000
 TDDFPT| Molecular Orbitals:        Spin       AOs       Occ      Virt     Total
 TDDFPT|                               1       210        21       189       210
 
 -------------------------------------------------------------------------------
 -                            TDDFPT Initial Guess                             -
 -------------------------------------------------------------------------------
          State         Occupied      ->      Virtual          Excitation
          number         orbital              orbital          energy (eV)
 -------------------------------------------------------------------------------
             1               21                   22              4.13019
             2               21                   23              4.83039
             3               20                   22              5.68776
             4               19                   22              6.09769
             5               20                   23              6.38796
             6               19                   23              6.79789
             7               18                   22              7.41948
             8               21                   24              7.47756
             9               21                   25              7.60867

      Number of active states:                                       3969
 -------------------------------------------------------------------------------
 
 -------------------------------------------------------------------------------
 -                      TDDFPT WAVEFUNCTION OPTIMIZATION                       -
 -------------------------------------------------------------------------------

          Step            Time         Convergence           Conv. states
 -------------------------------------------------------------------------------

    State    Exc. energy (eV)      Convergence (eV)
        1       2.8969502            -1.2332E+00
        2       3.5579429            -1.2724E+00
        3       4.7673190            -9.2044E-01
        4       5.3251249            -7.7257E-01
        5       6.0377981            -3.5016E-01
        6       6.7468048            -5.1087E-02
        7       6.7840315            -6.3545E-01
        8       7.6933529             2.1579E-01
        9       9.6557290             2.0471E+00

             1            10.6          7.5228E-02                      0

    State    Exc. energy (eV)      Convergence (eV)
        1       2.8312358            -6.5714E-02
        2       3.4956971            -6.2246E-02
        3       4.6464966            -1.2082E-01
        4       5.2240470            -1.0108E-01
        5       5.6455013            -3.9230E-01
        6       6.5222123            -2.2459E-01
        7       6.6442075            -1.3982E-01
        8       6.7622261            -9.3113E-01
        9       7.2510235            -2.4047E+00

             2            10.6          8.8371E-02                      0

    State    Exc. energy (eV)      Convergence (eV)
        1       2.8260719            -5.1640E-03
        2       3.4910967            -4.6004E-03
        3       4.6330883            -1.3408E-02
        4       5.2144343            -9.6126E-03
        5       5.5887503            -5.6751E-02
        6       6.2129895            -3.0922E-01
        7       6.6307149            -1.3493E-02
        8       6.6767838            -8.5442E-02
        9       6.8346191            -4.1640E-01

             3            10.6          1.5303E-02                      0

    State    Exc. energy (eV)      Convergence (eV)
        1       2.8259428            -1.2908E-04
        2       3.4908904            -2.0639E-04
        3       4.6328402            -2.4805E-04
        4       5.2141157            -3.1864E-04
        5       5.5873254            -1.4249E-03
        6       6.2018128            -1.1177E-02
        7       6.6284966            -2.2182E-03
        8       6.6681019            -8.6819E-03
        9       6.8262448            -8.3743E-03

             4            10.6          4.1074E-04                      0

    State    Exc. energy (eV)      Convergence (eV)
        1       2.8259412            -1.5349E-06
        2       3.4908879            -2.4457E-06
        3       4.6328359            -4.3550E-06
        4       5.2141073            -8.3640E-06
        5       5.5872889            -3.6433E-05
        6       6.2015791            -2.3361E-04
        7       6.6281951            -3.0154E-04
        8       6.6676664            -4.3553E-04
        9       6.8256273            -6.1746E-04

             5            10.6          2.2691E-05                      0

    State    Exc. energy (eV)      Convergence (eV)
        1       2.8259412            -1.7072E-08
        2       3.4908879            -1.9004E-08
        3       4.6328358            -7.5093E-08
        4       5.2141072            -1.9058E-07
        5       5.5872881            -8.6565E-07
        6       6.2015724            -6.7256E-06
        7       6.6281813            -1.3832E-05
        8       6.6676475            -1.8898E-05
        9       6.8255928            -3.4549E-05

             6            10.5          1.2696E-06                      0

    State    Exc. energy (eV)      Convergence (eV)
        1       2.8259412            -1.2783E-10
        2       3.4908879            -1.4059E-10
        3       4.6328358            -1.0696E-09
        4       5.2141072            -2.5805E-09
        5       5.5872880            -2.6376E-08
        6       6.2015722            -2.3224E-07
        7       6.6281807            -5.3317E-07
        8       6.6676470            -4.9440E-07
        9       6.8255919            -9.0519E-07

             7            10.5          3.3265E-08                      4

    State    Exc. energy (eV)      Convergence (eV)
        1       2.8259412            -7.1373E-13
        2       3.4908879            -1.3104E-12
        3       4.6328358            -1.2913E-11
        4       5.2141072            -2.9662E-11
        5       5.5872880            -5.4755E-10
        6       6.2015722            -5.6176E-09
        7       6.6281807            -1.4114E-08
        8       6.6676469            -1.2368E-08
        9       6.8255919            -2.4439E-08

             8            10.5          8.9810E-10                      6

    State    Exc. energy (eV)      Convergence (eV)
        1       2.8259412             2.6434E-15
        2       3.4908879            -4.5316E-15
        3       4.6328358            -8.1569E-14
        4       5.2141072            -2.2809E-13
        5       5.5872880            -6.4492E-12
        6       6.2015722            -8.6220E-11
        7       6.6281807            -2.9355E-10
        8       6.6676469            -2.8021E-10
        9       6.8255919            -4.2431E-10

             9            10.5          1.5593E-11                      9
 ------------------------- Restart Davidson iterations -------------------------

    State    Exc. energy (eV)      Convergence (eV)
        1       2.8259412             0.0000E+00
        2       3.4908879            -7.5527E-16
        3       4.6328358             8.3079E-15
        4       5.2141072             0.0000E+00
        5       5.5872880            -6.7974E-15
        6       6.2015722            -5.2869E-15
        7       6.6281807             4.3806E-14
        8       6.6676469            -4.0029E-14
        9       6.8255919             4.5316E-15

            10            10.5          1.6098E-15                      9
 
 -------------------------------------------------------------------------------
 -  TDDFPT run converged in 10 iteration(s) 
 -------------------------------------------------------------------------------

 R-TDDFPT states of multiplicity 1
 Transition dipoles calculated using length formulation

         State    Excitation        Transition dipole (a.u.)        Oscillator
         number   energy (eV)       x           y           z     strength (a.u.)
         ------------------------------------------------------------------------
 TDDFPT|      1       2.82594   3.9769E-02  8.6334E-02  1.5597E-01   2.30988E-03
 TDDFPT|      2       3.49089  -1.9136E-01  1.3153E-01 -6.5925E-02   4.98300E-03
 TDDFPT|      3       4.63284   3.3933E-02 -1.9762E-01 -1.9359E-01   8.81699E-03
 TDDFPT|      4       5.21411   2.4617E-02 -1.8813E-01  1.0383E-01   5.97568E-03
 TDDFPT|      5       5.58729  -2.3929E-02 -1.9494E-02  6.9822E-01   6.68641E-02
 TDDFPT|      6       6.20157  -4.5656E-02 -7.3342E-01 -5.4455E-01   1.27098E-01
 TDDFPT|      7       6.62818  -5.8485E-02 -2.3887E-01  1.4970E-01   1.34600E-02
 TDDFPT|      8       6.66765  -6.4875E-02 -4.3908E-01  5.7329E-02   3.27173E-02
 TDDFPT|      9       6.82559   1.2986E-02  8.8865E-02 -6.8985E-01   8.09299E-02

 TDDFPT : CheckSum  =  0.607731E+00
 
 -------------------------------------------------------------------------------
 -                            Excitation analysis                              -
 -------------------------------------------------------------------------------
        State             Occupied              Virtual             Excitation
        number             orbital              orbital             amplitude
 -------------------------------------------------------------------------------
             1   2.82594 eV
                                21                   22               0.988129
                                20                   22               0.125461
             2   3.49089 eV
                                21                   23               0.990500
                                20                   23               0.097809
             3   4.63284 eV
                                19                   22               0.737422
                                20                   22               0.645053
                                20                   23              -0.120606
                                18                   23              -0.100764
                                18                   22               0.061732
             4   5.21411 eV
                                19                   23               0.695750
                                20                   23               0.689870
                                19                   22               0.099596
                                18                   22               0.093136
                                21                   28              -0.074231
                                21                   27              -0.059915
             5   5.58729 eV
                                18                   22               0.466185
                                19                   23              -0.460884
                                19                   22               0.444266
                                20                   22              -0.432855
                                20                   23               0.321594
                                18                   23               0.232240
                                21                   26               0.098736
                                21                   22               0.056722
             6   6.20157 eV
                                20                   22               0.499334
                                20                   23               0.429618
                                19                   22              -0.425869
                                19                   23              -0.400670
                                18                   22               0.303800
                                21                   26              -0.163034
                                21                   25               0.125660
                                21                   28               0.124516
                                18                   23              -0.097919
                                21                   22              -0.081822
                                21                   27               0.073526
                                21                   23              -0.057610
                                21                   35              -0.057535
                                21                   37              -0.050131
             7   6.62818 eV
                                21                   24              -0.950577
                                21                   25              -0.147752
                                18                   22               0.147030
                                21                   26              -0.127148
                                21                   28               0.126044
                                19                   23               0.050792
             8   6.66765 eV
                                21                   25              -0.912124
                                21                   27               0.220283
                                18                   22               0.181238
                                21                   24               0.163770
                                21                   26               0.140967
                                21                   28               0.120379
                                19                   22              -0.078411
                                19                   23               0.058412
                                17                   22              -0.057568
             9   6.82559 eV
                                21                   26               0.938798
                                21                   24              -0.171486
                                18                   23              -0.155531
                                21                   25               0.125156
                                18                   22              -0.094221
                                20                   22               0.090315
                                20                   23               0.080859
                                19                   23              -0.071962
                                21                   27               0.068087
                                19                   22              -0.061692
 -------------------------------------------------------------------------------
 
 -------------------------------------------------------------------------------
 -                            Natural Orbital analysis                         -
 -------------------------------------------------------------------------------
   STATE NR.      1             2.82594 eV
     Particle-Hole state: 1   Spin:1     Eigenvalue: 0.99697   Sum Eigv: 0.99697
   STATE NR.      2             3.49089 eV
     Particle-Hole state: 1   Spin:1     Eigenvalue: 0.99427   Sum Eigv: 0.99427
   STATE NR.      3             4.63284 eV
     Particle-Hole state: 1   Spin:1     Eigenvalue: 0.97334   Sum Eigv: 0.97334
     Particle-Hole state: 2   Spin:1     Eigenvalue: 0.01957   Sum Eigv: 0.99291
   STATE NR.      4             5.21411 eV
     Particle-Hole state: 1   Spin:1     Eigenvalue: 0.97280   Sum Eigv: 0.97280
     Particle-Hole state: 2   Spin:1     Eigenvalue: 0.01389   Sum Eigv: 0.98669
   STATE NR.      5             5.58729 eV
     Particle-Hole state: 1   Spin:1     Eigenvalue: 0.75355   Sum Eigv: 0.75355
     Particle-Hole state: 2   Spin:1     Eigenvalue: 0.22486   Sum Eigv: 0.97841
   STATE NR.      6             6.20157 eV
     Particle-Hole state: 1   Spin:1     Eigenvalue: 0.81901   Sum Eigv: 0.81901
     Particle-Hole state: 2   Spin:1     Eigenvalue: 0.08285   Sum Eigv: 0.90187
     Particle-Hole state: 3   Spin:1     Eigenvalue: 0.07427   Sum Eigv: 0.97614
   STATE NR.      7             6.62818 eV
     Particle-Hole state: 1   Spin:1     Eigenvalue: 0.96324   Sum Eigv: 0.96324
     Particle-Hole state: 2   Spin:1     Eigenvalue: 0.02421   Sum Eigv: 0.98745
   STATE NR.      8             6.66765 eV
     Particle-Hole state: 1   Spin:1     Eigenvalue: 0.94555   Sum Eigv: 0.94555
     Particle-Hole state: 2   Spin:1     Eigenvalue: 0.04528   Sum Eigv: 0.99083
   STATE NR.      9             6.82559 eV
     Particle-Hole state: 1   Spin:1     Eigenvalue: 0.93568   Sum Eigv: 0.93568
     Particle-Hole state: 2   Spin:1     Eigenvalue: 0.05728   Sum Eigv: 0.99296
 -------------------------------------------------------------------------------
 Ground state orbital alignment:         1.000000[MinVal]      1.000000[Average]
 Excitation vector alignment:                                           1.000000
 Calculate properties for state:   1      with excitation energy      2.82594 eV

  HFX_MEM_INFO| Number of cart. primitive DERIV's calculated:        10854460644
  HFX_MEM_INFO| Number of sph. DERIV's calculated:                    2793359316
  HFX_MEM_INFO| Number of sph. DERIV's stored in-core:                         0
  HFX_MEM_INFO| Number of sph. DERIV's calculated on the fly:         2793359316
  HFX_MEM_INFO| Total memory consumption DERIV's RAM [MiB]:                    0
  HFX_MEM_INFO| Whereof max-vals [MiB]:                                        1
  HFX_MEM_INFO| Total compression factor DERIV's RAM:                       0.00

 !--------------------------- Excited State Energy ----------------------------!
 Results for Excited State Nr.                                                 1
[...]
  max size                          31.744000E+03
  average size                       7.502521E+03
 MPI breakdown and total messages size (bytes):
             size <=      128               76983                        0
       128 < size <=     8192               11037                 75351528
      8192 < size <=    32768               48108                945951552
     32768 < size <=   131072                   0                        0
    131072 < size <=  4194304                   0                        0
   4194304 < size <= 16777216                   0                        0
  16777216 < size                               0                        0
 -------------------------------------------------------------------------------
 -                                                                             -
 -                      DBCSR MESSAGE PASSING PERFORMANCE                      -
 -                                                                             -
 -------------------------------------------------------------------------------
 ROUTINE             CALLS      AVE VOLUME [Bytes]
 MP_Bcast               28                     12.
 MP_Allreduce         6132                      8.
 MP_Alltoall         23181                   2762.
 MP_ISend            22684                   3543.
 MP_IRecv            22684                   3255.
 -------------------------------------------------------------------------------

 -------------------------------------------------------------------------------
 -                                                                             -
 -                                DBM STATISTICS                               -
 -                                                                             -
 -------------------------------------------------------------------------------
    M  x    N  x    K                                          COUNT     PERCENT
 -------------------------------------------------------------------------------

 -------------------------------------------------------------------------------
 -                                                                             -
 -                                GRID STATISTICS                              -
 -                                                                             -
 -------------------------------------------------------------------------------
 LP    KERNEL             BACKEND                              COUNT     PERCENT
 1     collocate ortho    CPU                                 232452      15.78%
 2     collocate ortho    CPU                                 188892      12.82%
 1     integrate ortho    CPU                                 183794      12.48%
 0     collocate ortho    CPU                                 161370      10.96%
 2     integrate ortho    CPU                                 153446      10.42%
 3     collocate ortho    CPU                                 127116       8.63%
 0     integrate ortho    CPU                                 123065       8.35%
 3     integrate ortho    CPU                                 104574       7.10%
 4     collocate ortho    CPU                                  54648       3.71%
 4     integrate ortho    CPU                                  46812       3.18%
 4     collocate general  CPU                                  19200       1.30%
 5     collocate ortho    CPU                                  16632       1.13%
 5     integrate ortho    CPU                                  14892       1.01%
 4     integrate general  CPU                                  14496       0.98%
 2     collocate general  CPU                                  12800       0.87%
 2     integrate general  CPU                                   9664       0.66%
 6     collocate ortho    CPU                                   4158       0.28%
 6     integrate ortho    CPU                                   3843       0.26%
 5     integrate general  CPU                                    384       0.03%
 3     integrate general  CPU                                    256       0.02%
 7     integrate ortho    CPU                                    168       0.01%
 0     collocate general  CPU                                    160       0.01%
 0     integrate general  CPU                                    160       0.01%
 -------------------------------------------------------------------------------

 MEMORY| Estimated peak process memory [MiB]                                1291

 -------------------------------------------------------------------------------
 ----                             MULTIGRID INFO                            ----
 -------------------------------------------------------------------------------
 count for grid        1:         109549          cutoff [a.u.]          200.00
 count for grid        2:          22508          cutoff [a.u.]           66.67
 count for grid        3:           8627          cutoff [a.u.]           22.22
 count for grid        4:           1858          cutoff [a.u.]            7.41
 total gridlevel count  :         142542

 -------------------------------------------------------------------------------
 -                                                                             -
 -                         MESSAGE PASSING PERFORMANCE                         -
 -                                                                             -
 -------------------------------------------------------------------------------

 ROUTINE             CALLS      AVE VOLUME [Bytes]
 MP_Group                5
 MP_Bcast             4657                1006788.
 MP_Allreduce        13365                 147188.
 MP_Sync              1296
 MP_Alltoall          3948               15070582.
 MP_SendRecv          8970                 233861.
 MP_ISendRecv        14670                 126466.
 MP_Wait             31264
 MP_comm_split          48
 MP_ISend            14287                 822496.
 MP_IRecv            14454                 812616.
 -------------------------------------------------------------------------------


 -------------------------------------------------------------------------------
 -                                                                             -
 -                           R E F E R E N C E S                               -
 -                                                                             -
 -------------------------------------------------------------------------------
 
 CP2K version 2024.1 (Development Version), the CP2K developers group (2024).
 CP2K is freely available from https://www.cp2k.org/ .

 Kuehne,Thomas D.; Iannuzzi,Marcella; Del Ben,Mauro;
 Rybkin,Vladimir V.; Seewald,Patrick; Stein,Frederick; Laino,Teodoro;
 Khaliullin,Rustam Z.; Schuett,Ole; Schiffmann,Florian; Golze,Dorothea;
 Wilhelm,Jan; Chulkov,Sergey; Bani-Hashemian,Mohammad Hossein;
 Weber,Valery; Borstnik,Urban; Taillefumier,Mathieu;
 Jakobovits,Alice Shoshana; Lazzaro,Alfio; Pabst,Hans; Mueller,Tiziano;
 Schade,Robert; Guidon,Manuel; Andermatt,Samuel; Holmberg,Nico;
 Schenter,Gregory K.; Hehn,Anna; Bussy,Augustin; Belleflamme,Fabian;
 Tabacchi,Gloria; Gloess,Andreas; Lass,Michael; Bethune,Iain;
 Mundy,Christopher J.; Plessl,Christian; Watkins,Matt;
 VandeVondele,Joost; Krack,Matthias; Hutter,Juerg. 
 The Journal of Chemical Physics, 152 (19), (2020). 
 CP2K: An electronic structure and molecular dynamics software package -
 Quickstep: Efficient and accurate electronic structure calculations.
 https://doi.org/10.1063/5.0007045

 Goerigk, Lars; Hansen, Andreas; Bauer, Christoph; Ehrlich, Stephan;
 Najibi, Asim; Grimme, Stefan. , 19 (48), (2017). 
 A look at the density functional theory zoo with the advanced GMTKN55 database
 for general main group thermochemistry, kinetics and noncovalent interactions.
 https://doi.org/10.1039/C7CP04913G

 Schuett, Ole; Messmer, Peter; Hutter, Juerg; VandeVondele, Joost. 
 Electronic Structure Calculations on Graphics Processing Units, John
 Wiley & Sons, Ltd, 173-190 (2016). 
 GPU-Accelerated Sparse Matrix-Matrix Multiplication for
 Linear Scaling Density Functional Theory.
 https://doi.org/10.1002/9781118670712.ch8

 Heinecke, A; Henry, G; Hutchinson, M; Pabst, H. 
 Proceedings of Intl. Supercomputing Conference, 981-991 (2016). 
 LIBXSMM: Accelerating Small Matrix Multiplications
 by Runtime Code Generation.
 https://doi.org/10.1109/SC.2016.83

 Borstnik, U; VandeVondele, J; Weber, V; Hutter, J. 
 PARALLEL COMPUTING, 40 (5-6), 47-58 (2014). 
 Sparse matrix multiplication: The distributed block-compressed sparse
 row library.
 https://doi.org/10.1016/j.parco.2014.03.012

 Hutter, J; Iannuzzi, M; Schiffmann, F; VandeVondele, J. 
 WIREs Comput Mol Sci., 4 (1), 15-25 (2014). 
 CP2K: atomistic simulations of condensed matter systems.
 https://doi.org/10.1002/wcms.1159

 Grimme, S; Ehrlich, S; Goerigk, L. 
 JOURNAL OF COMPUTATIONAL CHEMISTRY, 32, 1456 (2011). 
 Effect of the damping function in dispersion corrected density functional theory.
 https://doi.org/10.1002/jcc.21759

 Grimme, S; Antony, J; Ehrlich, S; Krieg, H. 
 JOURNAL OF CHEMICAL PHYSICS, 132 (15), 154104 (2010). 
 A consistent and accurate ab initio parametrization of density
 functional dispersion correction (DFT-D) for the 94 elements H-Pu.
 https://doi.org/10.1063/1.3382344

 Guidon, M; Hutter, J; VandeVondele, J. 
 JOURNAL OF CHEMICAL THEORY AND COMPUTATION, 5 (11), 3010-3021 (2009). 
 Robust Periodic Hartree-Fock Exchange for Large-Scale Simulations Using
 Gaussian Basis Sets.
 https://doi.org/10.1021/ct900494g

 Guidon, M; Schiffmann, F; Hutter, J; VandeVondele, J. 
 JOURNAL OF CHEMICAL PHYSICS, 128 (21), 214104 (2008). 
 Ab initio molecular dynamics using hybrid density functionals.
 https://doi.org/10.1063/1.2931945

 VandeVondele, J; Hutter, J. 
 JOURNAL OF CHEMICAL PHYSICS, 127 (11), 114105 (2007). 
 Gaussian basis sets for accurate calculations on molecular systems in
 gas and condensed phases.
 https://doi.org/10.1063/1.2770708

 Frigo, M; Johnson, SG. 
 PROCEEDINGS OF THE IEEE, 93 (2), 216-231 (2005). 
 The design and implementation of FFTW3.
 https://doi.org/10.1109/JPROC.2004.840301

 Iannuzzi, M; Chassaing, T; Wallman, T; Hutter, J. 
 CHIMIA, 59 (7-8), 499-503 (2005). 
 Ground and excited state density functional calculations with the
 Gaussian and augmented-plane-wave method.
 https://doi.org/10.2533/000942905777676164

 VandeVondele, J; Hutter, J. 
 JOURNAL OF CHEMICAL PHYSICS, 118 (10), 4365-4369 (2003). 
 An efficient orbital transformation method for electronic structure
 calculations.
 https://doi.org/10.1063/1.1543154

 Martin,Richard L.. 
 The Journal of Chemical Physics, 118 (11), 4775-4777 (2003). 
 Natural transition orbitals.
 https://doi.org/10.1063/1.1558471

 Lippert, G; Hutter, J; Parrinello, M. 
 THEORETICAL CHEMISTRY ACCOUNTS, 103 (2), 124-140 (1999). 
 The Gaussian and augmented-plane-wave density functional method for ab
 initio molecular dynamics simulations.
 https://doi.org/10.1007/s002140050523

 Krack, M; Parrinello, M. 
 PHYSICAL CHEMISTRY CHEMICAL PHYSICS, 2 (10), 2105-2112 (2000). 
 All-electron ab-initio molecular dynamics.
 https://doi.org/10.1039/b001167n

 Martyna, GJ; Tuckerman, ME. 
 JOURNAL OF CHEMICAL PHYSICS, 110 (6), 2810-2821 (1999). 
 A reciprocal space based method for treating long range interactions in
 ab initio and force-field-based calculations in clusters.
 https://doi.org/10.1063/1.477923

 BECKE, AD. PHYSICAL REVIEW A, 38 (6), 3098-3100 (1988). 
 DENSITY-FUNCTIONAL EXCHANGE-ENERGY APPROXIMATION WITH CORRECT
 ASYMPTOTIC-BEHAVIOR.
 https://doi.org/10.1103/PhysRevA.38.3098

 LEE, CT; YANG, WT; PARR, RG. 
 PHYSICAL REVIEW B, 37 (2), 785-789 (1988). 
 DEVELOPMENT OF THE COLLE-SALVETTI CORRELATION-ENERGY FORMULA INTO A
 FUNCTIONAL OF THE ELECTRON-DENSITY.
 https://doi.org/10.1103/PhysRevB.37.785

 VOSKO, SH; WILK, L; NUSAIR, M. 
 CANADIAN JOURNAL OF PHYSICS, 58 (8), 1200-1211 (1980). 
 ACCURATE SPIN-DEPENDENT ELECTRON LIQUID CORRELATION ENERGIES FOR LOCAL
 SPIN-DENSITY CALCULATIONS - A CRITICAL ANALYSIS.
 https://doi.org/10.1139/p80-159


 -------------------------------------------------------------------------------
 -                                                                             -
 -                                T I M I N G                                  -
 -                                                                             -
 -------------------------------------------------------------------------------
 SUBROUTINE                       CALLS  ASD         SELF TIME        TOTAL TIME
                                MAXIMUM       AVERAGE  MAXIMUM  AVERAGE  MAXIMUM
 CP2K                                 1  1.0    0.012    0.018  263.888  263.888
 qs_forces                            1  2.0    0.001    0.001  262.890  262.890
 qs_energies                          1  3.0    0.000    0.000  166.683  166.683
 qs_energies_properties               1  4.0    0.000    0.000  144.147  144.147
 tddfpt                               1  5.0    0.000    0.000  144.147  144.147
 tddfpt_energies                      1  6.0    0.000    0.000  106.224  106.224
 tddfpt_davidson_solver               2  7.0    0.002    0.003  105.481  105.481
 tddfpt_compute_Aop_evects           10  8.0    0.000    0.000  105.161  105.161
 excited_state_energy                 2  3.5    0.001    0.002   83.007   83.007
 fft_wrap_pw1pw2                   3571 12.1    0.040    0.048   69.427   73.809
 fft_wrap_pw1pw2_200               2499 13.4    2.123    2.197   67.371   71.808
 fhxc_kernel                         10  9.0    0.003    0.003   66.995   66.995
 response_equation                    1  4.0    0.000    0.000   61.520   61.520
 linres_solver                        1  5.0    0.001    0.003   61.486   61.486
 apply_op                            43  6.0    0.001    0.001   61.412   61.412
 integrate_four_center              244 10.5    0.053    0.056   55.994   56.004
 fft3d_ps                          3571 14.1   28.917   30.616   50.950   55.139
 derivatives_four_center              4  8.5    0.005    0.007   51.239   53.497
 derivatives_four_center_main         4  9.5    0.000    0.001   51.149   53.407
 integrate_four_center_main         244 11.5    0.022    0.028   51.156   52.669
 integrate_four_center_bin        23180 12.5   51.134   52.652   51.134   52.652
 derivatives_four_center_bin        416 10.5   47.626   52.395   47.626   52.395
 xc_pw_derive                      1305 12.4    0.010    0.011   38.969   40.947
 tddfpt_apply_hfx                    10  9.0    0.001    0.001   38.062   38.062
 tddfpt_forces_main                   1  6.0    0.000    0.000   37.843   37.843
 tddft_hfx_matrix                   180 10.0    0.004    0.004   37.685   37.685
 tddfpt_forces                        1  7.0    0.000    0.000   36.513   36.513
 apply_op_2_dft                      42  7.0    0.003    0.003   35.911   35.989
 tddfpt_force_direct                  1  8.0    0.000    0.000   35.901   35.902
 tddfpt_kernel_force                  1  9.0    0.000    0.000   35.889   35.889
 fhxc_force                           1 10.0    0.001    0.001   35.889   35.889
 rebuild_ks_matrix                   18  6.8    0.000    0.000   33.220   33.221
 qs_ks_build_kohn_sham_matrix        18  7.8    0.002    0.003   33.220   33.221
 prepare_gapw_den                   204  8.7    0.005    0.005   32.746   32.907
 xc_pw_divergence                   195 12.3    0.005    0.005   23.846   25.803
 scf_env_do_scf                       1  4.0    0.000    0.000   22.326   22.327
 calculate_rho_elec                 198  9.5    0.326    0.347   22.279   22.282
 qs_rho_update_rho_low              193  8.5    0.002    0.002   22.197   22.199
 response_force                       1  4.0    0.005    0.006   21.485   21.485
 tddfpt_apply_xc_analytic            90 10.0    1.048    1.166   20.988   21.087
 hfx_ks_matrix                       18  8.8    0.001    0.001   20.836   20.836
 qs_ks_update_qs_env                 19  6.0    0.000    0.000   20.079   20.079
 qs_fxc_analytic                     43  8.0    0.002    0.002   19.840   19.930
 xc_rho_set_and_dset_create         106 12.1    1.920    2.212   16.129   19.254
 calculate_rho0_atom                600  9.7   17.842   18.618   17.842   18.618
 density_rs2pw                      198 10.5    0.008    0.008   17.474   18.341
 xc_calc_2nd_deriv_analytical       702 11.1    1.472    1.649   17.600   18.046
 mp_alltoall_z22v                  3571 16.1   11.914   16.975   11.914   16.975
 qs_vxc_create                       61 11.7    0.001    0.001   16.955   16.963
 xc_vxc_pw_create                    61 12.7    0.174    0.188   16.954   16.962
 yz_to_x                           1825 15.2    4.204    4.471   12.138   16.619
 integrate_v_rspace                 159  9.3    0.003    0.004   15.805   16.565
 scf_env_do_scf_inner_loop           17  5.0    0.000    0.001   16.507   16.507
 xc_calc_2nd_deriv                   44  8.9    0.523    0.587   12.617   14.474
 qs_ks_update_qs_env_forces           1  3.0    0.000    0.000   13.143   13.143
 tddfpt_apply_coulomb                90 10.0    0.002    0.002   11.146   12.487
 qs_fgxc_gdiff                        1 11.0    0.000    0.000   11.895   11.896
 qs_fxc_fdiff                         7 12.0    0.001    0.001   11.865   11.867
 x_to_yz                           1746 15.0    5.858    6.574    9.838   11.698
 potential_pw2rs                    159 10.3    0.016    0.017   10.548   11.311
 transfer_rs2pw                     993 11.3    0.011    0.012    8.791    9.640
 put_rho0_on_grid                   200  9.7    0.365    0.413    9.359    9.549
 xc_prep_2nd_deriv                   45  8.9    0.000    0.000    7.836    9.332
 apply_hfx                           42  7.0    0.001    0.001    8.850    8.857
 hfx_matrix                          42  8.0    0.001    0.001    8.847    8.854
 pw_gather_p                       1825 14.2    7.887    8.144    7.887    8.144
 transfer_rs2pw_200                 399 12.1    3.161    3.279    7.030    7.928
 integrate_vhg0_rspace              155  9.8    1.685    1.810    7.234    7.245
 transfer_pw2rs                     792 11.2    0.007    0.008    6.978    7.016
 pw_poisson_solve                   156  9.8    0.003    0.003    5.346    6.801
 xc_functional_eval                3016 11.9    0.004    0.007    3.730    6.723
 mp_sum_d                          2178  9.0    4.017    6.299    4.017    6.299
 grid_collocate_task_list           198 10.5    4.114    6.208    4.114    6.208
 mp_waitany                       14280 13.1    5.314    6.141    5.314    6.141
 pw_scatter_p                      1746 14.0    5.828    5.917    5.828    5.917
 init_scf_loop                        1  5.0    0.000    0.000    5.819    5.819
 transfer_pw2rs_200                 315 12.1    2.675    2.729    5.400    5.478
 mp_sum_lv                           38  3.6    3.522    5.368    3.522    5.368
 mp_sum_dv                         5182 10.7    2.486    5.284    2.486    5.284
 -------------------------------------------------------------------------------

 The number of warnings for this run is : 0
 
 -------------------------------------------------------------------------------
  **** **** ******  **  PROGRAM ENDED AT                 2025-01-05 10:42:53.928
 ***** ** ***  *** **   PROGRAM RAN ON                               nesh-clk548
 **    ****   ******    PROGRAM RAN BY                                  suphc356
 ***** **    ** ** **   PROGRAM PROCESS ID                               2383539
  **** **  *******  **  PROGRAM STOPPED IN /gxfs_work/cau/suphc356/NEWTONX_proje
                                           ct/Pyrazin_molecule/CP2K_GAPW_B3LYP_d
                                           ef2_TZVP/MOLDYN_BA_again/TRAJECTORIES
                                           /TRAJ28/TEMP
