      10
 i =      560, E =       -44.9895311772
  n         7.0000000008        8.2445194771        7.7236892325
  n         6.9999999997        5.8073323746        6.2763107675
  c         7.0000000329        7.0470765569        8.3346029396
  c         7.0000000334        5.8440002299        7.6201056158
  c         6.9999999672        8.2078516213        6.3798943826
  c         6.9999999658        7.0047752936        5.6653970594
  h         7.0000000586        7.0510373940        9.4254124537
  h         7.0000000613        4.8842963683        8.1386361058
  h         6.9999999408        9.1675554844        5.8613638924
  h         6.9999999370        7.0008144565        4.5745875465
