      10
 i =      368, E =       -44.8842015351
  n         6.9708333584        8.4822214549        7.6766544169
  n         6.9708333498        6.0782596250        6.2197477454
  c         6.9708333618        7.2890869293        8.2776965879
  c         6.9708333576        6.0978631540        7.5556036494
  c         6.9708333407        8.4625804718        6.3409149346
  c         6.9708333386        7.2714375052        5.6188575365
  h         6.9708333766        7.2808511658        9.3620062820
  h         6.9708333641        5.1404208609        8.0646894666
  h         6.9708333285        9.4200031365        5.8318001129
  h         6.9708333330        7.2797440709        4.5345374294
