 DBCSR| CPU Multiplication driver                                           XSMM (U)
 DBCSR| Multrec recursion limit                                              512 (U)
 DBCSR| Multiplication stack size                                           1000 (D)
 DBCSR| Maximum elements for images                                    UNLIMITED (U)
 DBCSR| Multiplicative factor virtual images                                   1 (U)
 DBCSR| Use multiplication densification                                       T (D)
 DBCSR| Multiplication size stacks                                             3 (U)
 DBCSR| Use memory pool for CPU allocation                                     F (U)
 DBCSR| Number of 3D layers                                               SINGLE (U)
 DBCSR| Use MPI memory allocation                                              F (U)
 DBCSR| Use RMA algorithm                                                      F (U)
 DBCSR| Use Communication thread                                               T (U)
 DBCSR| Communication thread load                                             87 (D)
 DBCSR| MPI: My process id                                                     0
 DBCSR| MPI: Number of processes                                              32
 DBCSR| OMP: Current number of threads                                         1
 DBCSR| OMP: Max number of threads                                             1
 DBCSR| Split modifier for TAS multiplication algorithm                  1.0E+00 (U)


  **** **** ******  **  PROGRAM STARTED AT               2024-06-21 09:39:24.246
 ***** ** ***  *** **   PROGRAM STARTED ON                               nugget1
 **    ****   ******    PROGRAM STARTED BY                                  hehn
 ***** **    ** ** **   PROGRAM PROCESS ID                                 56523
  **** **  *******  **  PROGRAM STARTED IN /beach/hehn/PYRAZIN/Pyrazin_molecule/
                                           CP2K_GPW_PBE_MOLOPT_DZVP/JOB_AD/GEO_O
                                           PT_3

 CP2K| version string:                 CP2K version 2024.1 (Development Version)
 CP2K| source code revision number:                                  git:444fb59
 CP2K| cp2kflags: omp libint fftw3 libxc libgrpp elpa parallel mpi_f08 scalapack
 CP2K|             xsmm spglib libvori libbqb libvdwxc hdf5
 CP2K| is freely available from                            https://www.cp2k.org/
 CP2K| Program compiled at                      Tue 04 Jun 2024 12:57:15 PM CEST
 CP2K| Program compiled on                                               nugget1
 CP2K| Program compiled for                                                local
 CP2K| Data directory path                     /beach/hehn/git/cp2k_develop/data
 CP2K| Input file name                                                  cp2k.inp

 GLOBAL| Force Environment number                                              1
 GLOBAL| Basis set file name                                     EMSL_BASIS_SETS
 GLOBAL| Potential file name                                           POTENTIAL
 GLOBAL| MM Potential file name                                     MM_POTENTIAL
 GLOBAL| Coordinate file name                                      __STD_INPUT__
 GLOBAL| Method name                                                        CP2K
 GLOBAL| Project name                                               testsuite_ad
 GLOBAL| Run type                                                        GEO_OPT
 GLOBAL| FFT library                                                       FFTW3
 GLOBAL| Diagonalization library                                       ScaLAPACK
 GLOBAL| DGEMM library                                                      BLAS
 GLOBAL| Orthonormality check for eigenvectors                          DISABLED
 GLOBAL| Matrix multiplication library                                 ScaLAPACK
 GLOBAL| All-to-all communication in single precision                          F
 GLOBAL| FFTs using library dependent lengths                                  F
 GLOBAL| Grid backend                                                       AUTO
 GLOBAL| Global print level                                               MEDIUM
 GLOBAL| MPI I/O enabled                                                       T
 GLOBAL| Total number of message passing processes                            32
 GLOBAL| Number of threads for this process                                    1
 GLOBAL| This output is from process                                           0
 GLOBAL| Stack size for threads created by OpenMP (OMP_STACKSIZE)        default
 GLOBAL| CPU model name                          AMD EPYC 9534 64-Core Processor
 GLOBAL| CPUID                                                              1003
 GLOBAL| Compiled for CPUID                                                    0

 *** HINT in environment.F:921 :: The compiler target flags (generic) used ***
 *** to build this binary cannot exploit all extensions of this CPU model  ***
 *** (x86_avx512). Consider compiler target flags as part of FCFLAGS and   ***
 *** CFLAGS (ARCH file).                                                   ***


 MEMORY| system memory details [Kb]
 MEMORY|                        rank 0           min           max       average
 MEMORY| MemTotal            527919568     527919568     527919568     527919568
 MEMORY| MemFree             485437460     485437460     485437460     485437460
 MEMORY| Buffers                684104        684104        684104        684104
 MEMORY| Cached                1990136       1990136       1990136       1990136
 MEMORY| Slab                  1518596       1518596       1518596       1518596
 MEMORY| SReclaimable           396048        396048        396048        396048
 MEMORY| MemLikelyFree       488507748     488507748     488507748     488507748


 *** Fundamental physical constants (SI units) ***

 *** Literature: B. J. Mohr and B. N. Taylor,
 ***             CODATA recommended values of the fundamental physical
 ***             constants: 2006, Web Version 5.1
 ***             http://physics.nist.gov/constants

 Speed of light in vacuum [m/s]                             2.99792458000000E+08
 Magnetic constant or permeability of vacuum [N/A**2]       1.25663706143592E-06
 Electric constant or permittivity of vacuum [F/m]          8.85418781762039E-12
 Planck constant (h) [J*s]                                  6.62606896000000E-34
 Planck constant (h-bar) [J*s]                              1.05457162825177E-34
 Elementary charge [C]                                      1.60217648700000E-19
 Electron mass [kg]                                         9.10938215000000E-31
 Electron g factor [ ]                                     -2.00231930436220E+00
 Proton mass [kg]                                           1.67262163700000E-27
 Fine-structure constant                                    7.29735253760000E-03
 Rydberg constant [1/m]                                     1.09737315685270E+07
 Avogadro constant [1/mol]                                  6.02214179000000E+23
 Boltzmann constant [J/K]                                   1.38065040000000E-23
 Atomic mass unit [kg]                                      1.66053878200000E-27
 Bohr radius [m]                                            5.29177208590000E-11

 *** Conversion factors ***

 [u] -> [a.u.]                                              1.82288848426455E+03
 [Angstrom] -> [Bohr] = [a.u.]                              1.88972613288564E+00
 [a.u.] = [Bohr] -> [Angstrom]                              5.29177208590000E-01
 [a.u.] -> [s]                                              2.41888432650478E-17
 [a.u.] -> [fs]                                             2.41888432650478E-02
 [a.u.] -> [J]                                              4.35974393937059E-18
 [a.u.] -> [N]                                              8.23872205491840E-08
 [a.u.] -> [K]                                              3.15774647902944E+05
 [a.u.] -> [kJ/mol]                                         2.62549961709828E+03
 [a.u.] -> [kcal/mol]                                       6.27509468713739E+02
 [a.u.] -> [Pa]                                             2.94210107994716E+13
 [a.u.] -> [bar]                                            2.94210107994716E+08
 [a.u.] -> [atm]                                            2.90362800883016E+08
 [a.u.] -> [eV]                                             2.72113838565563E+01
 [a.u.] -> [Hz]                                             6.57968392072181E+15
 [a.u.] -> [1/cm] (wave numbers)                            2.19474631370540E+05
 [a.u./Bohr**2] -> [1/cm]                                   5.14048714338585E+03
 

 CELL_TOP| Volume [angstrom^3]:                                      2744.000000
 CELL_TOP| Vector a [angstrom    14.000     0.000     0.000   |a| =    14.000000
 CELL_TOP| Vector b [angstrom     0.000    14.000     0.000   |b| =    14.000000
 CELL_TOP| Vector c [angstrom     0.000     0.000    14.000   |c| =    14.000000
 CELL_TOP| Angle (b,c), alpha [degree]:                                90.000000
 CELL_TOP| Angle (a,c), beta  [degree]:                                90.000000
 CELL_TOP| Angle (a,b), gamma [degree]:                                90.000000
 CELL_TOP| Numerically orthorhombic:                                         YES
 CELL_TOP| Periodicity                                                      NONE

 CELL| Volume [angstrom^3]:                                          2744.000000
 CELL| Vector a [angstrom]:      14.000     0.000     0.000   |a| =    14.000000
 CELL| Vector b [angstrom]:       0.000    14.000     0.000   |b| =    14.000000
 CELL| Vector c [angstrom]:       0.000     0.000    14.000   |c| =    14.000000
 CELL| Angle (b,c), alpha [degree]:                                    90.000000
 CELL| Angle (a,c), beta  [degree]:                                    90.000000
 CELL| Angle (a,b), gamma [degree]:                                    90.000000
 CELL| Numerically orthorhombic:                                             YES
 CELL| Periodicity                                                          NONE

 CELL_REF| Volume [angstrom^3]:                                      2744.000000
 CELL_REF| Vector a [angstrom    14.000     0.000     0.000   |a| =    14.000000
 CELL_REF| Vector b [angstrom     0.000    14.000     0.000   |b| =    14.000000
 CELL_REF| Vector c [angstrom     0.000     0.000    14.000   |c| =    14.000000
 CELL_REF| Angle (b,c), alpha [degree]:                                90.000000
 CELL_REF| Angle (a,c), beta  [degree]:                                90.000000
 CELL_REF| Angle (a,b), gamma [degree]:                                90.000000
 CELL_REF| Numerically orthorhombic:                                         YES
 CELL_REF| Periodicity                                                      NONE

 *******************************************************************************
 *******************************************************************************
 **                                                                           **
 **     #####                         ##              ##                      **
 **    ##   ##            ##          ##              ##                      **
 **   ##     ##                       ##            ######                    **
 **   ##     ##  ##   ##  ##   #####  ##  ##   ####   ##    #####    #####    **
 **   ##     ##  ##   ##  ##  ##      ## ##   ##      ##   ##   ##  ##   ##   **
 **   ##  ## ##  ##   ##  ##  ##      ####     ###    ##   ######   ######    **
 **    ##  ###   ##   ##  ##  ##      ## ##      ##   ##   ##       ##        **
 **     #######   #####   ##   #####  ##  ##  ####    ##    #####   ##        **
 **           ##                                                    ##        **
 **                                                                           **
 **                                                ... make the atoms dance   **
 **                                                                           **
 **            Copyright (C) by CP2K developers group (2000-2024)             **
 **                      J. Chem. Phys. 152, 194103 (2020)                    **
 **                                                                           **
 *******************************************************************************

 DFT| Spin restricted Kohn-Sham (RKS) calculation                            RKS
 DFT| Multiplicity                                                             1
 DFT| Number of spin states                                                    1
 DFT| Charge                                                                   0
 DFT| Self-interaction correction (SIC)                                       NO
 DFT| Cutoffs: density                                              1.000000E-10
 DFT|          gradient                                             1.000000E-10
 DFT|          tau                                                  1.000000E-10
 DFT|          cutoff_smoothing_range                               0.000000E+00
 DFT| XC density smoothing                                                  NONE
 DFT| XC derivatives                                                          PW

 FUNCTIONAL| PBE:
 FUNCTIONAL| J.P.Perdew, K.Burke, M.Ernzerhof, Phys. Rev. Letter, vol. 77, n 18,
 FUNCTIONAL|  pp. 3865-3868, (1996) {spin unpolarized}                          

 vdW POTENTIAL|                                                   Pair Potential
 vdW POTENTIAL|          DFT-D3 (Version 3.1)
 vdW POTENTIAL|          Potential Form: S. Grimme et al, JCP 132: 154104 (2010)
 vdW POTENTIAL|          Zero Damping
 vdW POTENTIAL|          Cutoff Radius [Bohr]:                             20.00
 vdW POTENTIAL|          s6 Scaling Factor:                               1.0000
 vdW POTENTIAL|          sr6 Scaling Factor:                              1.2170
 vdW POTENTIAL|          s8 Scaling Factor:                               0.7220
 vdW POTENTIAL|          Cutoff for CN calculation:                   0.1000E-05

 QS| Method:                                                                 GPW
 QS| Density plane wave grid type                        NON-SPHERICAL FULLSPACE
 QS| Number of grid levels:                                                    5
 QS| Density cutoff [a.u.]:                                                500.0
 QS| Multi grid cutoff [a.u.]: 1) grid level                               500.0
 QS|                           2) grid level                               166.7
 QS|                           3) grid level                                55.6
 QS|                           4) grid level                                18.5
 QS|                           5) grid level                                 6.2
 QS| Grid level progression factor:                                          3.0
 QS| Relative density cutoff [a.u.]:                                        50.0
 QS| Interaction thresholds: eps_pgf_orb:                                3.2E-09
 QS|                         eps_filter_matrix:                          0.0E+00
 QS|                         eps_core_charge:                            1.0E-19
 QS|                         eps_rho_gspace:                             1.0E-17
 QS|                         eps_rho_rspace:                             1.0E-17
 QS|                         eps_gvg_rspace:                             3.2E-09
 QS|                         eps_ppl:                                    1.0E-02
 QS|                         eps_ppnl:                                   3.2E-11


 ATOMIC KIND INFORMATION

  1. Atomic kind: n                                     Number of atoms:       2

     Orbital Basis Set                                        DZVP-MOLOPT-SR-GTH

       Number of orbital shell sets:                                           1
       Number of orbital shells:                                               5
       Number of primitive Cartesian functions:                                5
       Number of Cartesian basis functions:                                   14
       Number of spherical basis functions:                                   13
       Norm type:                                                              2

       Normalised Cartesian orbitals:

                        Set   Shell   Orbital            Exponent    Coefficient

                          1       1    2s                7.341988       0.360561
                                                         2.542637       0.139177
                                                         0.888575      -0.289383
                                                         0.333802      -0.182244
                                                         0.112012      -0.019197

                          1       2    3s                7.341988       0.282000
                                                         2.542637       0.177875
                                                         0.888575      -0.278381
                                                         0.333802       0.008577
                                                         0.112012       0.154176

                          1       3    3px               7.341988      -1.188719
                                                         2.542637      -0.973969
                                                         0.888575      -0.501079
                                                         0.333802      -0.144894
                                                         0.112012      -0.013986
                          1       3    3py               7.341988      -1.188719
                                                         2.542637      -0.973969
                                                         0.888575      -0.501079
                                                         0.333802      -0.144894
                                                         0.112012      -0.013986
                          1       3    3pz               7.341988      -1.188719
                                                         2.542637      -0.973969
                                                         0.888575      -0.501079
                                                         0.333802      -0.144894
                                                         0.112012      -0.013986

                          1       4    4px               7.341988      -0.094798
                                                         2.542637       0.050069
                                                         0.888575      -0.114797
                                                         0.333802       0.144793
                                                         0.112012       0.066710
                          1       4    4py               7.341988      -0.094798
                                                         2.542637       0.050069
                                                         0.888575      -0.114797
                                                         0.333802       0.144793
                                                         0.112012       0.066710
                          1       4    4pz               7.341988      -0.094798
                                                         2.542637       0.050069
                                                         0.888575      -0.114797
                                                         0.333802       0.144793
                                                         0.112012       0.066710

                          1       5    4dx2              7.341988       1.354688
                                                         2.542637       0.690378
                                                         0.888575       0.855359
                                                         0.333802       0.091746
                                                         0.112012       0.001253
                          1       5    4dxy              7.341988       2.346389
                                                         2.542637       1.195770
                                                         0.888575       1.481524
                                                         0.333802       0.158910
                                                         0.112012       0.002169
                          1       5    4dxz              7.341988       2.346389
                                                         2.542637       1.195770
                                                         0.888575       1.481524
                                                         0.333802       0.158910
                                                         0.112012       0.002169
                          1       5    4dy2              7.341988       1.354688
                                                         2.542637       0.690378
                                                         0.888575       0.855359
                                                         0.333802       0.091746
                                                         0.112012       0.001253
                          1       5    4dyz              7.341988       2.346389
                                                         2.542637       1.195770
                                                         0.888575       1.481524
                                                         0.333802       0.158910
                                                         0.112012       0.002169
                          1       5    4dz2              7.341988       1.354688
                                                         2.542637       0.690378
                                                         0.888575       0.855359
                                                         0.333802       0.091746
                                                         0.112012       0.001253

       Atomic covalent radius [Angstrom]:                                  0.750

       Atomic van der Waals radius [Angstrom]:                             1.550

     GTH Potential information for                                    GTH-PBE-q5

       Description:                       Goedecker-Teter-Hutter pseudopotential
                                           Goedecker et al., PRB 54, 1703 (1996)
                                          Hartwigsen et al., PRB 58, 3641 (1998)
                                                      Krack, TCA 114, 145 (2005)

       Gaussian exponent of the core charge distribution:               6.208322
       Electronic configuration (s p d ...):                               2   3

       Parameters of the local part of the GTH pseudopotential:

                          rloc        C1          C2          C3          C4
                        0.283791  -12.415226    1.868096

       Parameters of the non-local part of the GTH pseudopotential:

                   l      r(l)      h(i,j,l)

                   0    0.255405   13.630263
                   1    0.245495

  2. Atomic kind: c                                     Number of atoms:       4

     Orbital Basis Set                                        DZVP-MOLOPT-SR-GTH

       Number of orbital shell sets:                                           1
       Number of orbital shells:                                               5
       Number of primitive Cartesian functions:                                5
       Number of Cartesian basis functions:                                   14
       Number of spherical basis functions:                                   13
       Norm type:                                                              2

       Normalised Cartesian orbitals:

                        Set   Shell   Orbital            Exponent    Coefficient

                          1       1    2s                5.605331       0.322515
                                                         2.113016       0.213043
                                                         0.769911      -0.209686
                                                         0.348157      -0.219794
                                                         0.128212      -0.022789

                          1       2    3s                5.605331       0.552234
                                                         2.113016       0.082072
                                                         0.769911       0.007843
                                                         0.348157       0.136893
                                                         0.128212       0.074283

                          1       3    3px               5.605331      -0.703879
                                                         2.113016      -0.642521
                                                         0.769911      -0.374851
                                                         0.348157      -0.139743
                                                         0.128212      -0.027849
                          1       3    3py               5.605331      -0.703879
                                                         2.113016      -0.642521
                                                         0.769911      -0.374851
                                                         0.348157      -0.139743
                                                         0.128212      -0.027849
                          1       3    3pz               5.605331      -0.703879
                                                         2.113016      -0.642521
                                                         0.769911      -0.374851
                                                         0.348157      -0.139743
                                                         0.128212      -0.027849

                          1       4    4px               5.605331      -0.480376
                                                         2.113016      -0.552894
                                                         0.769911      -0.316145
                                                         0.348157       0.210505
                                                         0.128212       0.076095
                          1       4    4py               5.605331      -0.480376
                                                         2.113016      -0.552894
                                                         0.769911      -0.316145
                                                         0.348157       0.210505
                                                         0.128212       0.076095
                          1       4    4pz               5.605331      -0.480376
                                                         2.113016      -0.552894
                                                         0.769911      -0.316145
                                                         0.348157       0.210505
                                                         0.128212       0.076095

                          1       5    4dx2              5.605331       0.640026
                                                         2.113016       0.274300
                                                         0.769911       0.446711
                                                         0.348157       0.028674
                                                         0.128212       0.029790
                          1       5    4dxy              5.605331       1.108557
                                                         2.113016       0.475102
                                                         0.769911       0.773726
                                                         0.348157       0.049666
                                                         0.128212       0.051599
                          1       5    4dxz              5.605331       1.108557
                                                         2.113016       0.475102
                                                         0.769911       0.773726
                                                         0.348157       0.049666
                                                         0.128212       0.051599
                          1       5    4dy2              5.605331       0.640026
                                                         2.113016       0.274300
                                                         0.769911       0.446711
                                                         0.348157       0.028674
                                                         0.128212       0.029790
                          1       5    4dyz              5.605331       1.108557
                                                         2.113016       0.475102
                                                         0.769911       0.773726
                                                         0.348157       0.049666
                                                         0.128212       0.051599
                          1       5    4dz2              5.605331       0.640026
                                                         2.113016       0.274300
                                                         0.769911       0.446711
                                                         0.348157       0.028674
                                                         0.128212       0.029790

       Atomic covalent radius [Angstrom]:                                  0.770

       Atomic van der Waals radius [Angstrom]:                             1.700

     GTH Potential information for                                    GTH-PBE-q4

       Description:                       Goedecker-Teter-Hutter pseudopotential
                                           Goedecker et al., PRB 54, 1703 (1996)
                                          Hartwigsen et al., PRB 58, 3641 (1998)
                                                      Krack, TCA 114, 145 (2005)

       Gaussian exponent of the core charge distribution:               4.364419
       Electronic configuration (s p d ...):                               2   2

       Parameters of the local part of the GTH pseudopotential:

                          rloc        C1          C2          C3          C4
                        0.338471   -8.803674    1.339211

       Parameters of the non-local part of the GTH pseudopotential:

                   l      r(l)      h(i,j,l)

                   0    0.302576    9.622487
                   1    0.291507

  3. Atomic kind: h                                     Number of atoms:       4

     Orbital Basis Set                                        DZVP-MOLOPT-SR-GTH

       Number of orbital shell sets:                                           1
       Number of orbital shells:                                               3
       Number of primitive Cartesian functions:                                5
       Number of Cartesian basis functions:                                    5
       Number of spherical basis functions:                                    5
       Norm type:                                                              2

       Normalised Cartesian orbitals:

                        Set   Shell   Orbital            Exponent    Coefficient

                          1       1    2s               10.068468      -0.133023
                                                         2.680223      -0.177618
                                                         0.791502      -0.258419
                                                         0.239116      -0.107525
                                                         0.082193      -0.014019

                          1       2    3s               10.068468       0.344673
                                                         2.680223       1.819821
                                                         0.791502      -0.999069
                                                         0.239116       0.017430
                                                         0.082193       0.082660

                          1       3    3px              10.068468       0.155326
                                                         2.680223       0.367157
                                                         0.791502       0.311480
                                                         0.239116       0.080105
                                                         0.082193       0.033440
                          1       3    3py              10.068468       0.155326
                                                         2.680223       0.367157
                                                         0.791502       0.311480
                                                         0.239116       0.080105
                                                         0.082193       0.033440
                          1       3    3pz              10.068468       0.155326
                                                         2.680223       0.367157
                                                         0.791502       0.311480
                                                         0.239116       0.080105
                                                         0.082193       0.033440

       Atomic covalent radius [Angstrom]:                                  0.320

       Atomic van der Waals radius [Angstrom]:                             1.090

     GTH Potential information for                                    GTH-PBE-q1

       Description:                       Goedecker-Teter-Hutter pseudopotential
                                           Goedecker et al., PRB 54, 1703 (1996)
                                          Hartwigsen et al., PRB 58, 3641 (1998)
                                                      Krack, TCA 114, 145 (2005)

       Gaussian exponent of the core charge distribution:              12.500000
       Electronic configuration (s p d ...):                                   1

       Parameters of the local part of the GTH pseudopotential:

                          rloc        C1          C2          C3          C4
                        0.200000   -4.178900    0.724463


 MOLECULE KIND INFORMATION


 All atoms are their own molecule, skipping detailed information


 TOTAL NUMBERS AND MAXIMUM NUMBERS

  Total number of            - Atomic kinds:                                   3
                             - Atoms:                                         10
                             - Shell sets:                                    10
                             - Shells:                                        42
                             - Primitive Cartesian functions:                 50
                             - Cartesian basis functions:                    104
                             - Spherical basis functions:                     98

  Maximum angular momentum of- Orbital basis functions:                        2
                             - Local part of the GTH pseudopotential:          2
                             - Non-local part of the GTH pseudopotential:      0


 MODULE QUICKSTEP: ATOMIC COORDINATES IN ANGSTROM

   Atom Kind Element         X             Y             Z       Z(eff)     Mass
      1    1 n     7      7.000055      8.215973      7.701954   5.0000  14.0067
      2    1 n     7      6.999915      5.784028      6.298045   5.0000  14.0067
      3    2 c     6      6.999892      7.039589      8.332430   4.0000  12.0107
      4    2 c     6      7.000096      5.826288      7.632003   4.0000  12.0107
      5    2 c     6      7.000118      8.173713      6.367997   4.0000  12.0107
      6    2 c     6      6.999872      6.960412      5.667570   4.0000  12.0107
      7    3 h     1      6.999483      7.052525      9.428911   1.0000   1.0079
      8    3 h     1      7.000517      4.870259      8.169185   1.0000   1.0079
      9    3 h     1      7.000412      9.129741      5.830814   1.0000   1.0079
     10    3 h     1      6.999587      6.947477      4.571089   1.0000   1.0079



 SCF PARAMETERS         Density guess:                                   RESTART
                        --------------------------------------------------------
                        max_scf:                                              10
                        max_scf_history:                                       0
                        max_diis:                                              4
                        --------------------------------------------------------
                        eps_scf:                                        1.00E-09
                        eps_scf_history:                                0.00E+00
                        eps_diis:                                       1.00E-01
                        eps_eigval:                                     1.00E-05
                        --------------------------------------------------------
                        level_shift [a.u.]:                             0.000000
                        --------------------------------------------------------
                        Outer loop SCF in use 
                        No variables optimised in outer loop
                        eps_scf                                         1.00E-09
                        max_scf                                              900
                        No outer loop optimization
                        step_size                                       5.00E-01

 PW_GRID| Information for grid number                                          1
 PW_GRID| Grid distributed over                                    32 processors
 PW_GRID| Real space group dimensions                                    32    1
 PW_GRID| the grid is blocked:                                                NO
 PW_GRID| Cutoff [a.u.]                                                   1000.0
 PW_GRID| spherical cutoff:                                                   NO
 PW_GRID|   Bounds   1           -192     191                Points:         384
 PW_GRID|   Bounds   2           -192     191                Points:         384
 PW_GRID|   Bounds   3           -192     191                Points:         384
 PW_GRID| Volume element (a.u.^3)  0.3270E-03     Volume (a.u.^3)     18517.4301
 PW_GRID| Grid span                                                    FULLSPACE
 PW_GRID|   Distribution                         Average         Max         Min
 PW_GRID|   G-Vectors                          1769472.0     1769472     1769472
 PW_GRID|   G-Rays                                4608.0        4608        4608
 PW_GRID|   Real Space Points                  1769472.0     1769472     1769472

 PW_GRID| Information for grid number                                          2
 PW_GRID| Number of the reference grid                                         1
 PW_GRID| Grid distributed over                                    32 processors
 PW_GRID| Real space group dimensions                                    32    1
 PW_GRID| the grid is blocked:                                                NO
 PW_GRID| Cutoff [a.u.]                                                    500.0
 PW_GRID| spherical cutoff:                                                   NO
 PW_GRID|   Bounds   1           -135     134                Points:         270
 PW_GRID|   Bounds   2           -135     134                Points:         270
 PW_GRID|   Bounds   3           -135     134                Points:         270
 PW_GRID| Volume element (a.u.^3)  0.9408E-03     Volume (a.u.^3)     18517.4301
 PW_GRID| Grid span                                                    FULLSPACE
 PW_GRID|   Distribution                         Average         Max         Min
 PW_GRID|   G-Vectors                           615093.8      615600      614790
 PW_GRID|   G-Rays                                2278.1        2280        2277
 PW_GRID|   Real Space Points                   615093.8      656100      583200

 PW_GRID| Information for grid number                                          3
 PW_GRID| Number of the reference grid                                         2
 PW_GRID| Grid distributed over                                    32 processors
 PW_GRID| Real space group dimensions                                    32    1
 PW_GRID| the grid is blocked:                                                NO
 PW_GRID| Cutoff [a.u.]                                                    166.7
 PW_GRID| spherical cutoff:                                                   NO
 PW_GRID|   Bounds   1            -80      79                Points:         160
 PW_GRID|   Bounds   2            -80      79                Points:         160
 PW_GRID|   Bounds   3            -80      79                Points:         160
 PW_GRID| Volume element (a.u.^3)  0.4521E-02     Volume (a.u.^3)     18517.4301
 PW_GRID| Grid span                                                    FULLSPACE
 PW_GRID|   Distribution                         Average         Max         Min
 PW_GRID|   G-Vectors                           128000.0      128480      127680
 PW_GRID|   G-Rays                                 800.0         803         798
 PW_GRID|   Real Space Points                   128000.0      128000      128000

 PW_GRID| Information for grid number                                          4
 PW_GRID| Number of the reference grid                                         2
 PW_GRID| Grid distributed over                                    32 processors
 PW_GRID| Real space group dimensions                                    32    1
 PW_GRID| the grid is blocked:                                                NO
 PW_GRID| Cutoff [a.u.]                                                     55.6
 PW_GRID| spherical cutoff:                                                   NO
 PW_GRID|   Bounds   1            -45      44                Points:          90
 PW_GRID|   Bounds   2            -45      44                Points:          90
 PW_GRID|   Bounds   3            -45      44                Points:          90
 PW_GRID| Volume element (a.u.^3)  0.2540E-01     Volume (a.u.^3)     18517.4301
 PW_GRID| Grid span                                                    FULLSPACE
 PW_GRID|   Distribution                         Average         Max         Min
 PW_GRID|   G-Vectors                            22781.2       22860       22680
 PW_GRID|   G-Rays                                 253.1         254         252
 PW_GRID|   Real Space Points                    22781.2       24300       16200

 PW_GRID| Information for grid number                                          5
 PW_GRID| Number of the reference grid                                         2
 PW_GRID| Grid distributed over                                    32 processors
 PW_GRID| Real space group dimensions                                    32    1
 PW_GRID| the grid is blocked:                                                NO
 PW_GRID| Cutoff [a.u.]                                                     18.5
 PW_GRID| spherical cutoff:                                                   NO
 PW_GRID|   Bounds   1            -27      26                Points:          54
 PW_GRID|   Bounds   2            -27      26                Points:          54
 PW_GRID|   Bounds   3            -27      26                Points:          54
 PW_GRID| Volume element (a.u.^3)  0.1176         Volume (a.u.^3)     18517.4301
 PW_GRID| Grid span                                                    FULLSPACE
 PW_GRID|   Distribution                         Average         Max         Min
 PW_GRID|   G-Vectors                             4920.8        4968        4860
 PW_GRID|   G-Rays                                  91.1          92          90
 PW_GRID|   Real Space Points                     4920.8        5832        2916

 PW_GRID| Information for grid number                                          6
 PW_GRID| Number of the reference grid                                         2
 PW_GRID| Grid distributed over                                    32 processors
 PW_GRID| Real space group dimensions                                     4    8
 PW_GRID| the grid is blocked:                                                NO
 PW_GRID| Cutoff [a.u.]                                                      6.2
 PW_GRID| spherical cutoff:                                                   NO
 PW_GRID|   Bounds   1            -15      14                Points:          30
 PW_GRID|   Bounds   2            -15      14                Points:          30
 PW_GRID|   Bounds   3            -15      14                Points:          30
 PW_GRID| Volume element (a.u.^3)  0.6858         Volume (a.u.^3)     18517.4301
 PW_GRID| Grid span                                                    FULLSPACE
 PW_GRID|   Distribution                         Average         Max         Min
 PW_GRID|   G-Vectors                              843.8         930         780
 PW_GRID|   G-Rays                                  28.1          31          26
 PW_GRID|   Real Space Points                      843.8         960         630

 POISSON| Solver                                          Martyna-Tuckerman (MT)
 POISSON| MT| Alpha                                                        7.000
 POISSON| MT| Relative cutoff                                                2.0
 POISSON| Periodicity                                                       NONE

 RS_GRID| Information for grid number                                          2
 RS_GRID|   Bounds   1           -135     134                Points:         270
 RS_GRID|   Bounds   2           -135     134                Points:         270
 RS_GRID|   Bounds   3           -135     134                Points:         270
 RS_GRID| Real space distribution over                                  4 groups
 RS_GRID| Real space distribution along direction                              2
 RS_GRID| Border size                                                         40
 RS_GRID| Real space distribution over                                  8 groups
 RS_GRID| Real space distribution along direction                              3
 RS_GRID| Border size                                                         40
 RS_GRID|   Distribution                         Average         Max         Min
 RS_GRID|   Planes                                 147.5         148         147
 RS_GRID|   Distribution                         Average         Max         Min
 RS_GRID|   Planes                                 113.8         114         113

 RS_GRID| Information for grid number                                          3
 RS_GRID|   Bounds   1            -80      79                Points:         160
 RS_GRID|   Bounds   2            -80      79                Points:         160
 RS_GRID|   Bounds   3            -80      79                Points:         160
 RS_GRID| Real space fully replicated
 RS_GRID| Group size                                                           1

 RS_GRID| Information for grid number                                          4
 RS_GRID|   Bounds   1            -45      44                Points:          90
 RS_GRID|   Bounds   2            -45      44                Points:          90
 RS_GRID|   Bounds   3            -45      44                Points:          90
 RS_GRID| Real space fully replicated
 RS_GRID| Group size                                                           1

 RS_GRID| Information for grid number                                          5
 RS_GRID|   Bounds   1            -27      26                Points:          54
 RS_GRID|   Bounds   2            -27      26                Points:          54
 RS_GRID|   Bounds   3            -27      26                Points:          54
 RS_GRID| Real space fully replicated
 RS_GRID| Group size                                                           1

 RS_GRID| Information for grid number                                          6
 RS_GRID|   Bounds   1            -15      14                Points:          30
 RS_GRID|   Bounds   2            -15      14                Points:          30
 RS_GRID|   Bounds   3            -15      14                Points:          30
 RS_GRID| Real space fully replicated
 RS_GRID| Group size                                                           1

 BFGS| Use rational function optimization for step estimation:                NO
 BFGS| Use model Hessian for initial guess:                                  YES
 BFGS| Restart Hessian:                                                       NO
 BFGS| Trust radius:                                                       0.472

 *******************************************************************************
 ***                     STARTING GEOMETRY OPTIMIZATION                      ***
 ***                                   BFGS                                  ***
 *******************************************************************************

 Number of electrons:                                                         30
 Number of occupied orbitals:                                                 15
 Number of molecular orbitals:                                                15

 Number of orbital functions:                                                 98
 Number of independent orbital functions:                                     98

 Extrapolation method: initial_guess

 *** WARNING in qs_initial_guess.F:306 :: User requested to restart the    ***
 *** wavefunction from the file named: testsuite_ad-RESTART.wfn. This file ***
 *** does not exist. Please check the existence of the file or change      ***
 *** properly the value of the keyword WFN_RESTART_FILE_NAME. Calculation  ***
 *** continues using ATOMIC GUESS.                                         ***


 Atomic guess: The first density matrix is obtained in terms of atomic orbitals
               and electronic configurations assigned to each atomic kind

 Guess for atomic kind: n

 Electronic structure
    Total number of core electrons                                          2.00
    Total number of valence electrons                                       5.00
    Total number of electrons                                               7.00
    Multiplicity                                                   not specified
    S   [  2.00] 2.00
    P      3.00


 *******************************************************************************
                  Iteration          Convergence                     Energy [au]
 *******************************************************************************
                          1        0.314603                      -9.513311037226
                          2        0.240982                      -9.524715106536
                          3        0.171660E-02                  -9.545365478140
                          4        0.189497E-03                  -9.545366407342
                          5        0.115171E-03                  -9.545366414563
                          6        0.842367E-04                  -9.545366416530
                          7        0.416372E-07                  -9.545366418792

 Energy components [Hartree]           Total Energy ::           -9.545366418792
                                        Band Energy ::           -2.053285301135
                                     Kinetic Energy ::            6.740378038236
                                   Potential Energy ::          -16.285744457028
                                      Virial (-V/T) ::            2.416147041701
                                        Core Energy ::          -15.542519058333
                                          XC Energy ::           -2.163416690174
                                     Coulomb Energy ::            8.160569329715
                       Total Pseudopotential Energy ::          -22.320027271038
                       Local Pseudopotential Energy ::          -23.240219346165
                    Nonlocal Pseudopotential Energy ::            0.920192075127
                                        Confinement ::            0.371301744695

 Orbital energies  State     L     Occupation   Energy[a.u.]          Energy[eV]

                       1     0          2.000      -0.663125          -18.044549

                       1     1          3.000      -0.242345           -6.594545


 Total Electron Density at R=0:                                         0.000019

 Guess for atomic kind: c

 Electronic structure
    Total number of core electrons                                          2.00
    Total number of valence electrons                                       4.00
    Total number of electrons                                               6.00
    Multiplicity                                                   not specified
    S   [  2.00] 2.00
    P      2.00


 *******************************************************************************
                  Iteration          Convergence                     Energy [au]
 *******************************************************************************
                          1        0.261814E-01                  -5.246264729087
                          2        0.905236E-02                  -5.246529568708
                          3        0.681743E-04                  -5.246565167452
                          4        0.792828E-08                  -5.246565169473

 Energy components [Hartree]           Total Energy ::           -5.246565169473
                                        Band Energy ::           -1.058732595430
                                     Kinetic Energy ::            3.518928170589
                                   Potential Energy ::           -8.765493340062
                                      Virial (-V/T) ::            2.490955460053
                                        Core Energy ::           -8.429377169956
                                          XC Energy ::           -1.450183342358
                                     Coulomb Energy ::            4.632995342842
                       Total Pseudopotential Energy ::          -11.978048809389
                       Local Pseudopotential Energy ::          -12.816738187351
                    Nonlocal Pseudopotential Energy ::            0.838689377962
                                        Confinement ::            0.297434688432

 Orbital energies  State     L     Occupation   Energy[a.u.]          Energy[eV]

                       1     0          2.000      -0.410911          -11.181458

                       1     1          2.000      -0.118455           -3.223332


 Total Electron Density at R=0:                                         0.001337

 Guess for atomic kind: h

 Electronic structure
    Total number of core electrons                                          0.00
    Total number of valence electrons                                       1.00
    Total number of electrons                                               1.00
    Multiplicity                                                   not specified
    S      1.00


 *******************************************************************************
                  Iteration          Convergence                     Energy [au]
 *******************************************************************************
                          1        0.250972E-02                  -0.375256815885
                          2        0.570752E-04                  -0.375258666164
                          3        0.832405E-09                  -0.375258667122

 Energy components [Hartree]           Total Energy ::           -0.375258667122
                                        Band Energy ::           -0.076317618391
                                     Kinetic Energy ::            0.771356566341
                                   Potential Energy ::           -1.146615233463
                                      Virial (-V/T) ::            1.486491829455
                                        Core Energy ::           -0.456090715790
                                          XC Energy ::           -0.314218627334
                                     Coulomb Energy ::            0.395050676003
                       Total Pseudopotential Energy ::           -1.238482237174
                       Local Pseudopotential Energy ::           -1.238482237174
                    Nonlocal Pseudopotential Energy ::            0.000000000000
                                        Confinement ::            0.110349550431

 Orbital energies  State     L     Occupation   Energy[a.u.]          Energy[eV]

                       1     0          1.000      -0.076318           -2.076708


 Total Electron Density at R=0:                                         0.425022
 Re-scaling the density matrix to get the right number of electrons
                  # Electrons              Trace(P)               Scaling factor
                           30                30.000                        1.000


 SCF WAVEFUNCTION OPTIMIZATION

  ----------------------------------- OT ---------------------------------------
  Minimizer      : DIIS                : direct inversion
                                         in the iterative subspace
                                         using   7 DIIS vectors
                                         safer DIIS on
  Preconditioner : FULL_ALL            : diagonalization, state selective
  Precond_solver : DEFAULT
  stepsize       :    0.15000000                  energy_gap     :    0.08000000
  eps_taylor     :   0.10000E-15                  max_taylor     :             4
  ----------------------------------- OT ---------------------------------------

  Step     Update method      Time    Convergence         Total energy    Change
  ------------------------------------------------------------------------------
     1 OT DIIS     0.15E+00    1.1     0.19206365       -41.2199094392 -4.12E+01
     2 OT DIIS     0.15E+00    1.1     0.19807439       -42.3651314902 -1.15E+00
     3 OT DIIS     0.15E+00    1.1     0.13300267       -43.6042319571 -1.24E+00
     4 OT DIIS     0.15E+00    1.1     0.05870791       -44.5099666483 -9.06E-01
     5 OT DIIS     0.15E+00    1.1     0.03950858       -44.7060912691 -1.96E-01
     6 OT DIIS     0.15E+00    1.0     0.02936514       -44.8007712912 -9.47E-02
     7 OT DIIS     0.15E+00    1.0     0.01994495       -44.8656154641 -6.48E-02
     8 OT DIIS     0.15E+00    1.1     0.01868057       -44.8995571208 -3.39E-02
     9 OT DIIS     0.15E+00    1.0     0.01412197       -44.9469460938 -4.74E-02
    10 OT DIIS     0.15E+00    1.1     0.00978620       -44.9664030953 -1.95E-02

  Leaving inner SCF loop after reaching    10 steps.


  Electronic density on regular grids:        -30.0000000000        0.0000000000
  Core density on regular grids:               30.0000000000        0.0000000000
  Total charge density on r-space grids:        0.0000000000
  Total charge density g-space grids:           0.0000000000

  Overlap energy of the core charge distribution:               0.00000179148390
  Self energy of the core charge distribution:               -108.68316522202922
  Core Hamiltonian energy:                                     33.22451299976415
  Hartree energy:                                              43.89354615471215
  Exchange-correlation energy:                                -13.39907589694352
  Dispersion energy:                                           -0.00222292231201

  Total energy:                                               -44.96640309532457

  outer SCF iter =    1 RMS gradient =   0.98E-02 energy =        -44.9664030953

  ----------------------------------- OT ---------------------------------------
  Minimizer      : DIIS                : direct inversion
                                         in the iterative subspace
                                         using   7 DIIS vectors
                                         safer DIIS on
  Preconditioner : FULL_ALL            : diagonalization, state selective
  Precond_solver : DEFAULT
  stepsize       :    0.15000000                  energy_gap     :    0.08000000
  eps_taylor     :   0.10000E-15                  max_taylor     :             4
  ----------------------------------- OT ---------------------------------------

  Step     Update method      Time    Convergence         Total energy    Change
  ------------------------------------------------------------------------------
     1 OT DIIS     0.15E+00    2.2     0.00750717       -44.9805548683 -1.42E-02
     2 OT DIIS     0.15E+00    1.1     0.00344351       -44.9877246380 -7.17E-03
     3 OT DIIS     0.15E+00    1.1     0.00250662       -44.9886212852 -8.97E-04
     4 OT DIIS     0.15E+00    1.0     0.00067267       -44.9890406197 -4.19E-04
     5 OT DIIS     0.15E+00    1.0     0.00016507       -44.9890689589 -2.83E-05
     6 OT DIIS     0.15E+00    1.0     0.00003388       -44.9890710727 -2.11E-06
     7 OT DIIS     0.15E+00    1.1     0.00001722       -44.9890711679 -9.53E-08
     8 OT DIIS     0.15E+00    1.1     0.00000655       -44.9890711865 -1.85E-08
     9 OT DIIS     0.15E+00    1.0     0.00000254       -44.9890711888 -2.27E-09
    10 OT DIIS     0.15E+00    1.1     0.00000061       -44.9890711891 -3.36E-10

  Leaving inner SCF loop after reaching    10 steps.


  Electronic density on regular grids:        -30.0000000000       -0.0000000000
  Core density on regular grids:               30.0000000000        0.0000000000
  Total charge density on r-space grids:       -0.0000000000
  Total charge density g-space grids:          -0.0000000000

  Overlap energy of the core charge distribution:               0.00000179148390
  Self energy of the core charge distribution:               -108.68316522202922
  Core Hamiltonian energy:                                     33.21738862957101
  Hartree energy:                                              43.88273294899118
  Exchange-correlation energy:                                -13.40380641479119
  Dispersion energy:                                           -0.00222292231201

  Total energy:                                               -44.98907118908635

  outer SCF iter =    2 RMS gradient =   0.61E-06 energy =        -44.9890711891

  ----------------------------------- OT ---------------------------------------
  Minimizer      : DIIS                : direct inversion
                                         in the iterative subspace
                                         using   7 DIIS vectors
                                         safer DIIS on
  Preconditioner : FULL_ALL            : diagonalization, state selective
  Precond_solver : DEFAULT
  stepsize       :    0.15000000                  energy_gap     :    0.08000000
  eps_taylor     :   0.10000E-15                  max_taylor     :             4
  ----------------------------------- OT ---------------------------------------

  Step     Update method      Time    Convergence         Total energy    Change
  ------------------------------------------------------------------------------
     1 OT DIIS     0.15E+00    2.2     0.00000021       -44.9890711891 -3.03E-11
     2 OT DIIS     0.15E+00    1.0     0.00000020       -44.9890711891 -1.60E-12
     3 OT DIIS     0.15E+00    1.0     0.00000004       -44.9890711891 -2.05E-12
     4 OT DIIS     0.15E+00    1.1     0.00000002       -44.9890711891 -8.53E-14
     5 OT DIIS     0.15E+00    1.1     3.2801E-09       -44.9890711891 -2.84E-14
     6 OT DIIS     0.15E+00    1.1     1.0616E-09       -44.9890711891  2.84E-14
     7 OT DIIS     0.15E+00    1.1     4.7377E-10       -44.9890711891  1.42E-14

  *** SCF run converged in     7 steps ***


  Electronic density on regular grids:        -30.0000000000        0.0000000000
  Core density on regular grids:               30.0000000000        0.0000000000
  Total charge density on r-space grids:        0.0000000000
  Total charge density g-space grids:           0.0000000000

  Overlap energy of the core charge distribution:               0.00000179148390
  Self energy of the core charge distribution:               -108.68316522202922
  Core Hamiltonian energy:                                     33.21739658788632
  Hartree energy:                                              43.88272657550650
  Exchange-correlation energy:                                -13.40380799965584
  Dispersion energy:                                           -0.00222292231201

  Total energy:                                               -44.98907118912037

  outer SCF iter =    3 RMS gradient =   0.47E-09 energy =        -44.9890711891
  outer SCF loop converged in   3 iterations or   27 steps


 !-----------------------------------------------------------------------------!
                     Mulliken Population Analysis

 #  Atom  Element  Kind  Atomic population                           Net charge
       1     n        1          5.149343                             -0.149343
       2     n        1          5.149343                             -0.149343
       3     c        2          4.000211                             -0.000211
       4     c        2          4.000245                             -0.000245
       5     c        2          4.000245                             -0.000245
       6     c        2          4.000211                             -0.000211
       7     h        3          0.925117                              0.074883
       8     h        3          0.925085                              0.074915
       9     h        3          0.925085                              0.074915
      10     h        3          0.925117                              0.074883
 # Total charge                             30.000000                  0.000000

 !-----------------------------------------------------------------------------!

 !-----------------------------------------------------------------------------!
                           Hirshfeld Charges

  #Atom  Element  Kind  Ref Charge     Population                    Net charge
      1       n      1       5.000          5.317                        -0.317
      2       n      1       5.000          5.317                        -0.317
      3       c      2       4.000          4.288                        -0.288
      4       c      2       4.000          4.288                        -0.288
      5       c      2       4.000          4.288                        -0.288
      6       c      2       4.000          4.288                        -0.288
      7       h      3       1.000          0.551                         0.449
      8       h      3       1.000          0.551                         0.449
      9       h      3       1.000          0.551                         0.449
     10       h      3       1.000          0.551                         0.449

  Total Charge                                                            0.009
 !-----------------------------------------------------------------------------!

 ENERGY| Total FORCE_EVAL ( QS ) energy [a.u.]:              -44.989071189120331

 ATOMIC FORCES in [a.u.]

 # Atom   Kind   Element          X              Y              Z
      1      1      n          -0.00001144     0.01017925     0.00592908
      2      1      n           0.00001333    -0.01017932    -0.00592817
      3      2      c          -0.00000320    -0.00827529     0.00569105
      4      2      c           0.00000291    -0.00079374     0.01006514
      5      2      c           0.00000960     0.00079349    -0.01006564
      6      2      c          -0.00001030     0.00827537    -0.00569136
      7      3      h           0.00001407     0.00074030    -0.00355966
      8      3      h          -0.00001462     0.00273411    -0.00243637
      9      3      h          -0.00000394    -0.00273380     0.00243632
     10      3      h           0.00000362    -0.00074035     0.00355960
 SUM OF ATOMIC FORCES           0.00000004     0.00000000    -0.00000000     0.00000004

 OPT| **************************************************************************
 OPT| Step number                                                              0
 OPT| Optimization method                                                   BFGS
 OPT| Total energy [hartree]                                      -44.9890711891
 OPT| Used time [s]                                                       30.308
 OPT| **************************************************************************
 OPT| Estimated peak process memory [MiB]                                    736

 --------------------------
 OPTIMIZATION STEP:      1
 --------------------------

 Number of electrons:                                                         30
 Number of occupied orbitals:                                                 15
 Number of molecular orbitals:                                                15

 Number of orbital functions:                                                 98
 Number of independent orbital functions:                                     98

 Parameters for the always stable predictor-corrector (ASPC) method:

  ASPC order: 0

  B(1) =   1.000000

 Extrapolation method: ASPC


 SCF WAVEFUNCTION OPTIMIZATION

  ----------------------------------- OT ---------------------------------------
  Minimizer      : DIIS                : direct inversion
                                         in the iterative subspace
                                         using   7 DIIS vectors
                                         safer DIIS on
  Preconditioner : FULL_ALL            : diagonalization, state selective
  Precond_solver : DEFAULT
  stepsize       :    0.15000000                  energy_gap     :    0.08000000
  eps_taylor     :   0.10000E-15                  max_taylor     :             4
  ----------------------------------- OT ---------------------------------------

  Step     Update method      Time    Convergence         Total energy    Change
  ------------------------------------------------------------------------------
     1 OT DIIS     0.15E+00    0.8     0.00102288       -44.9892743731 -4.50E+01
     2 OT DIIS     0.15E+00    1.1     0.00045677       -44.9894235163 -1.49E-04
     3 OT DIIS     0.15E+00    1.0     0.00032747       -44.9894459969 -2.25E-05
     4 OT DIIS     0.15E+00    1.1     0.00001553       -44.9894537790 -7.78E-06
     5 OT DIIS     0.15E+00    1.1     0.00000439       -44.9894538044 -2.54E-08
     6 OT DIIS     0.15E+00    1.0     0.00000077       -44.9894538067 -2.28E-09
     7 OT DIIS     0.15E+00    1.1     0.00000007       -44.9894538068 -9.59E-11
     8 OT DIIS     0.15E+00    1.0     0.00000003       -44.9894538068 -8.38E-13
     9 OT DIIS     0.15E+00    1.0     0.00000002       -44.9894538068 -5.68E-14
    10 OT DIIS     0.15E+00    1.0     5.4781E-09       -44.9894538068 -5.68E-14

  Leaving inner SCF loop after reaching    10 steps.


  Electronic density on regular grids:        -30.0000000000       -0.0000000000
  Core density on regular grids:               30.0000000000        0.0000000000
  Total charge density on r-space grids:       -0.0000000000
  Total charge density g-space grids:          -0.0000000000

  Overlap energy of the core charge distribution:               0.00000185835688
  Self energy of the core charge distribution:               -108.68316522202922
  Core Hamiltonian energy:                                     33.18337785182665
  Hartree energy:                                              43.90867835243401
  Exchange-correlation energy:                                -13.39611266297818
  Dispersion energy:                                           -0.00223398440499

  Total energy:                                               -44.98945380679486

  outer SCF iter =    1 RMS gradient =   0.55E-08 energy =        -44.9894538068

  ----------------------------------- OT ---------------------------------------
  Minimizer      : DIIS                : direct inversion
                                         in the iterative subspace
                                         using   7 DIIS vectors
                                         safer DIIS on
  Preconditioner : FULL_ALL            : diagonalization, state selective
  Precond_solver : DEFAULT
  stepsize       :    0.15000000                  energy_gap     :    0.08000000
  eps_taylor     :   0.10000E-15                  max_taylor     :             4
  ----------------------------------- OT ---------------------------------------

  Step     Update method      Time    Convergence         Total energy    Change
  ------------------------------------------------------------------------------
     1 OT DIIS     0.15E+00    2.1     1.7515E-09       -44.9894538068  0.00E+00
     2 OT DIIS     0.15E+00    1.1     9.9483E-10       -44.9894538068  4.26E-14

  *** SCF run converged in     2 steps ***


  Electronic density on regular grids:        -30.0000000000       -0.0000000000
  Core density on regular grids:               30.0000000000        0.0000000000
  Total charge density on r-space grids:       -0.0000000000
  Total charge density g-space grids:          -0.0000000000

  Overlap energy of the core charge distribution:               0.00000185835688
  Self energy of the core charge distribution:               -108.68316522202922
  Core Hamiltonian energy:                                     33.18337789175813
  Hartree energy:                                              43.90867831986655
  Exchange-correlation energy:                                -13.39611267034216
  Dispersion energy:                                           -0.00223398440499

  Total energy:                                               -44.98945380679481

  outer SCF iter =    2 RMS gradient =   0.99E-09 energy =        -44.9894538068
  outer SCF loop converged in   2 iterations or   12 steps


 !-----------------------------------------------------------------------------!
                     Mulliken Population Analysis

 #  Atom  Element  Kind  Atomic population                           Net charge
       1     n        1          5.149376                             -0.149376
       2     n        1          5.149376                             -0.149376
       3     c        2          3.999149                              0.000851
       4     c        2          3.999184                              0.000816
       5     c        2          3.999184                              0.000816
       6     c        2          3.999149                              0.000851
       7     h        3          0.926157                              0.073843
       8     h        3          0.926135                              0.073865
       9     h        3          0.926135                              0.073865
      10     h        3          0.926157                              0.073843
 # Total charge                             30.000000                 -0.000000

 !-----------------------------------------------------------------------------!

 !-----------------------------------------------------------------------------!
                           Hirshfeld Charges

  #Atom  Element  Kind  Ref Charge     Population                    Net charge
      1       n      1       5.000          5.316                        -0.316
      2       n      1       5.000          5.316                        -0.316
      3       c      2       4.000          4.289                        -0.289
      4       c      2       4.000          4.289                        -0.289
      5       c      2       4.000          4.289                        -0.289
      6       c      2       4.000          4.289                        -0.289
      7       h      3       1.000          0.551                         0.449
      8       h      3       1.000          0.551                         0.449
      9       h      3       1.000          0.551                         0.449
     10       h      3       1.000          0.551                         0.449

  Total Charge                                                            0.009
 !-----------------------------------------------------------------------------!

 ENERGY| Total FORCE_EVAL ( QS ) energy [a.u.]:              -44.989453806794799

 ATOMIC FORCES in [a.u.]

 # Atom   Kind   Element          X              Y              Z
      1      1      n           0.00000921     0.00238064     0.00139009
      2      1      n          -0.00000878    -0.00238083    -0.00138973
      3      2      c          -0.00000582    -0.00366520     0.00337227
      4      2      c           0.00000607    -0.00110050     0.00488976
      5      2      c          -0.00002417     0.00110050    -0.00489016
      6      2      c           0.00002446     0.00366533    -0.00337222
      7      3      h           0.00000710    -0.00016673    -0.00119546
      8      3      h          -0.00000756     0.00112663    -0.00046313
      9      3      h          -0.00000092    -0.00112653     0.00046314
     10      3      h           0.00000044     0.00016668     0.00119545
 SUM OF ATOMIC FORCES           0.00000003     0.00000000     0.00000000     0.00000003

 OPT| **************************************************************************
 OPT| Step number                                                              1
 OPT| Optimization method                                                   BFGS
 OPT| Total energy [hartree]                                      -44.9894538068
 OPT| Effective energy change [hartree]                            -0.0003826177
 OPT| Predicted energy change [hartree]                            -0.0003198375
 OPT| Scaling factor                                                0.0000000000
 OPT| Step size                                                     0.0213889468
 OPT| Trust radius                                                  0.4724315332
 OPT| Decrease in energy                                                     YES
 OPT| Used time [s]                                                       13.907
 OPT|
 OPT| Maximum step size                                             0.0213889468
 OPT| Convergence limit for maximum step size                       0.0000001000
 OPT| Maximum step size is converged                                          NO
 OPT|
 OPT| RMS step size                                                 0.0077537977
 OPT| Convergence limit for RMS step size                           0.0000001000
 OPT| RMS step size is converged                                              NO
 OPT|
 OPT| Maximum gradient                                              0.0048901598
 OPT| Convergence limit for maximum gradient                        0.0000001000
 OPT| Maximum gradient is converged                                           NO
 OPT|
 OPT| RMS gradient                                                  0.0020078200
 OPT| Convergence limit for RMS gradient                            0.0000001000
 OPT| RMS gradient is converged                                               NO
[...]
     6  c            -0.00 -0.07  0.13     0.00  0.06 -0.03     0.00  0.37 -0.05
     7  h            -0.00 -0.46  0.14     0.00 -0.49  0.04    -0.00  0.16 -0.03
     8  h             0.00 -0.10 -0.47     0.00  0.20  0.45    -0.00 -0.06 -0.16
     9  h             0.00 -0.10 -0.47     0.00 -0.20 -0.45    -0.00 -0.06 -0.16
    10  h             0.00 -0.46  0.14    -0.00  0.49 -0.04    -0.00  0.15 -0.03


 VIB|                        16                   17                   18
 VIB|Frequency (cm^-1)  1334.684063          1404.914473          1466.397694
 VIB|Red.Masses (a.u.)     1.202915             1.816043             1.979612
 VIB|Frc consts (a.u.)     0.009773             0.018113             0.023435
  ATOM  EL             X     Y     Z        X     Y     Z        X     Y     Z  
     1  n            -0.00  0.04 -0.07    -0.00 -0.05  0.08     0.00  0.07  0.04
     2  n             0.00 -0.04  0.07    -0.00 -0.05  0.08    -0.00  0.07  0.04
     3  c             0.00  0.03  0.01     0.00 -0.09 -0.08    -0.00 -0.13  0.05
     4  c             0.00  0.02  0.02    -0.00  0.11  0.04    -0.00 -0.01 -0.14
     5  c             0.00 -0.02 -0.02    -0.00  0.11  0.04    -0.00 -0.01 -0.14
     6  c            -0.00 -0.03 -0.01     0.00 -0.09 -0.08     0.00 -0.13  0.05
     7  h             0.00 -0.50  0.01    -0.00  0.47 -0.10     0.00  0.47  0.05
     8  h            -0.00 -0.23 -0.44    -0.00 -0.14 -0.46     0.00  0.27  0.39
     9  h            -0.00  0.23  0.44     0.00 -0.14 -0.46    -0.00  0.27  0.39
    10  h            -0.00  0.50 -0.01     0.00  0.47 -0.10     0.00  0.47  0.05


 VIB|                        19                   20                   21
 VIB|Frequency (cm^-1)  1530.568155          1572.939894          3137.507150
 VIB|Red.Masses (a.u.)     8.579601             4.867427             1.085950
 VIB|Frc consts (a.u.)     0.120545             0.076282             0.269415
  ATOM  EL             X     Y     Z        X     Y     Z        X     Y     Z  
     1  n            -0.00  0.19 -0.31    -0.00  0.11  0.07    -0.00 -0.00  0.00
     2  n             0.00 -0.19  0.31     0.00 -0.11 -0.07    -0.00  0.00 -0.00
     3  c            -0.00 -0.27  0.16    -0.00 -0.27 -0.07     0.00  0.00  0.04
     4  c             0.00  0.01 -0.30    -0.00  0.19  0.20     0.00  0.04 -0.02
     5  c            -0.00 -0.01  0.30     0.00 -0.19 -0.20    -0.00 -0.04  0.02
     6  c             0.00  0.27 -0.16     0.00  0.27  0.07    -0.00 -0.00 -0.04
     7  h             0.00  0.27  0.15     0.00  0.39 -0.11    -0.00 -0.00 -0.50
     8  h            -0.00  0.25  0.15     0.00 -0.09 -0.39     0.00 -0.44  0.24
     9  h             0.00 -0.25 -0.15     0.00  0.09  0.39     0.00  0.44 -0.24
    10  h            -0.00 -0.27 -0.15    -0.00 -0.39  0.11     0.00  0.00  0.50


 VIB|                        22                   23                   24
 VIB|Frequency (cm^-1)  3138.055764          3148.984594          3154.082539
 VIB|Red.Masses (a.u.)     1.090677             1.094212             1.099185
 VIB|Frc consts (a.u.)     0.270777             0.275458             0.278506
  ATOM  EL             X     Y     Z        X     Y     Z        X     Y     Z  
     1  n            -0.00  0.00  0.00     0.00 -0.00  0.00     0.00  0.00  0.00
     2  n             0.00  0.00  0.00     0.00 -0.00  0.00     0.00 -0.00 -0.00
     3  c            -0.00  0.00 -0.04    -0.00 -0.00 -0.04    -0.00 -0.00 -0.05
     4  c            -0.00 -0.04  0.02    -0.00  0.04 -0.02    -0.00  0.04 -0.02
     5  c            -0.00 -0.04  0.02     0.00  0.04 -0.02     0.00 -0.04  0.02
     6  c            -0.00  0.00 -0.04     0.00 -0.00 -0.04    -0.00  0.00  0.05
     7  h             0.00  0.00  0.50     0.00  0.01  0.50     0.00  0.01  0.50
     8  h            -0.00  0.44 -0.24    -0.00 -0.44  0.23    -0.00 -0.44  0.23
     9  h             0.00  0.44 -0.24    -0.00 -0.44  0.23    -0.00  0.44 -0.23
    10  h             0.00  0.00  0.50     0.00  0.01  0.50     0.00 -0.01 -0.50



 VIB|                        NORMAL MODES - THERMOCHEMICAL DATA
 VIB|
 VIB|              Symmetry number:                                                 1
 VIB|              Temperature [K]:                                            273.15
 VIB|              Pressure [Pa]:                                           101325.00


 VIB|              Electronic energy (U) [kJ/mol]:                   -118119.98898317
 VIB|              Zero-point correction [kJ/mol]:                       197.10380536
 VIB|              Entropy [kJ/(mol K)]:                                   0.24734545
 VIB|              Enthalpy correction (H-U) [kJ/mol]:                   207.99184008
 VIB|              Gibbs energy correction [kJ/mol]:                     140.42943153
 VIB|              Heat capacity [kJ/(mol*K)]:                             0.06398970



 -------------------------------------------------------------------------------
 -                                                                             -
 -                                DBCSR STATISTICS                             -
 -                                                                             -
 -------------------------------------------------------------------------------
 COUNTER                                    TOTAL       BLAS       SMM       ACC
 flops     5 x     5 x    15              6600000       0.0%    100.0%      0.0%
 flops    15 x    15 x    15             19365750       0.0%    100.0%      0.0%
 flops    13 x     5 x    15             20592000       0.0%    100.0%      0.0%
 flops     5 x    13 x    15             20592000       0.0%    100.0%      0.0%
 flops     5 x    15 x     5             30312000       0.0%    100.0%      0.0%
 flops    15 x    15 x    23             61230600       0.0%    100.0%      0.0%
 flops    15 x    15 x    26             69217200       0.0%    100.0%      0.0%
 flops    23 x    15 x    15             78825600       0.0%    100.0%      0.0%
 flops    26 x    15 x    15             89107200       0.0%    100.0%      0.0%
 flops    13 x    13 x    15             93693600       0.0%    100.0%      0.0%
 flops    23 x    15 x    23            111470880       0.0%    100.0%      0.0%
 flops    13 x    15 x     5            118216800       0.0%    100.0%      0.0%
 flops     5 x    15 x    13            118216800       0.0%    100.0%      0.0%
 flops    23 x    15 x    26            126010560       0.0%    100.0%      0.0%
 flops    26 x    15 x    23            126010560       0.0%    100.0%      0.0%
 flops    26 x    15 x    26            142446720       0.0%    100.0%      0.0%
 flops    13 x    15 x    13            461045520       0.0%    100.0%      0.0%
 flops inhomo. stacks                           0       0.0%      0.0%      0.0%
 flops total                         1.692954E+09       0.0%    100.0%      0.0%
 flops max/rank                    245.622870E+06       0.0%    100.0%      0.0%
 matmuls inhomo. stacks                         0       0.0%      0.0%      0.0%
 matmuls total                             359029       0.0%    100.0%      0.0%
 number of processed stacks                178885       0.0%    100.0%      0.0%
 average stack size                                     0.0       2.0       0.0
 marketing flops                     1.810381E+09
 -------------------------------------------------------------------------------
 # multiplications                           7552
 max memory usage/rank               1.374474E+09
 # max total images/rank                        1
 # max 3D layers                                1
 # MPI messages exchanged                 1432224
 MPI messages size (bytes):
  total size                         1.594757E+09
  min size                           0.000000E+00
  max size                           5.408000E+03
  average size                       1.113483E+03
 MPI breakdown and total messages size (bytes):
             size <=      128             1008858                        0
       128 < size <=     8192              423366               1594756752
      8192 < size <=    32768                   0                        0
     32768 < size <=   131072                   0                        0
    131072 < size <=  4194304                   0                        0
   4194304 < size <= 16777216                   0                        0
  16777216 < size                               0                        0
 -------------------------------------------------------------------------------
 -                                                                             -
 -                      DBCSR MESSAGE PASSING PERFORMANCE                      -
 -                                                                             -
 -------------------------------------------------------------------------------
 ROUTINE             CALLS      AVE VOLUME [Bytes]
 MP_Bcast               18                     12.
 MP_Allreduce        39179                      8.
 MP_Alltoall         34860                   1061.
 MP_ISend           120588                    834.
 MP_IRecv           120588                    695.
 -------------------------------------------------------------------------------

 -------------------------------------------------------------------------------
 -                                                                             -
 -                                DBM STATISTICS                               -
 -                                                                             -
 -------------------------------------------------------------------------------
    M  x    N  x    K                                          COUNT     PERCENT
 -------------------------------------------------------------------------------

 -------------------------------------------------------------------------------
 -                                                                             -
 -                                GRID STATISTICS                              -
 -                                                                             -
 -------------------------------------------------------------------------------
 LP    KERNEL             BACKEND                              COUNT     PERCENT
 3     collocate ortho    CPU                                 438448      20.84%
 4     integrate ortho    CPU                                 421816      20.05%
 4     collocate ortho    CPU                                 420452      19.98%
 3     integrate ortho    CPU                                 418360      19.88%
 2     collocate ortho    CPU                                 173416       8.24%
 2     integrate ortho    CPU                                 160272       7.62%
 5     integrate ortho    CPU                                  31868       1.51%
 0     collocate general  CPU                                  19840       0.94%
 0     integrate general  CPU                                   9920       0.47%
 1     integrate general  CPU                                   9920       0.47%
 -------------------------------------------------------------------------------

 MEMORY| Estimated peak process memory [MiB]                                1311

 -------------------------------------------------------------------------------
 ----                             MULTIGRID INFO                            ----
 -------------------------------------------------------------------------------
 count for grid        1:         297760          cutoff [a.u.]          500.00
 count for grid        2:         204480          cutoff [a.u.]          166.67
 count for grid        3:         140480          cutoff [a.u.]           55.56
 count for grid        4:          42400          cutoff [a.u.]           18.52
 count for grid        5:           1280          cutoff [a.u.]            6.17
 total gridlevel count  :         686400

 -------------------------------------------------------------------------------
 -                                                                             -
 -                         MESSAGE PASSING PERFORMANCE                         -
 -                                                                             -
 -------------------------------------------------------------------------------

 ROUTINE             CALLS      AVE VOLUME [Bytes]
 MP_Group                7
 MP_Bcast              871                6213882.
 MP_Allreduce          489                   6350.
 MP_Sync                 5
 MP_comm_split           2
 -------------------------------------------------------------------------------


 -------------------------------------------------------------------------------
 -                                                                             -
 -                           R E F E R E N C E S                               -
 -                                                                             -
 -------------------------------------------------------------------------------
 
 CP2K version 2024.1 (Development Version), the CP2K developers group (2024).
 CP2K is freely available from https://www.cp2k.org/ .

 Kuehne,Thomas D.; Iannuzzi,Marcella; Del Ben,Mauro;
 Rybkin,Vladimir V.; Seewald,Patrick; Stein,Frederick; Laino,Teodoro;
 Khaliullin,Rustam Z.; Schuett,Ole; Schiffmann,Florian; Golze,Dorothea;
 Wilhelm,Jan; Chulkov,Sergey; Bani-Hashemian,Mohammad Hossein;
 Weber,Valery; Borstnik,Urban; Taillefumier,Mathieu;
 Jakobovits,Alice Shoshana; Lazzaro,Alfio; Pabst,Hans; Mueller,Tiziano;
 Schade,Robert; Guidon,Manuel; Andermatt,Samuel; Holmberg,Nico;
 Schenter,Gregory K.; Hehn,Anna; Bussy,Augustin; Belleflamme,Fabian;
 Tabacchi,Gloria; Gloess,Andreas; Lass,Michael; Bethune,Iain;
 Mundy,Christopher J.; Plessl,Christian; Watkins,Matt;
 VandeVondele,Joost; Krack,Matthias; Hutter,Juerg. 
 The Journal of Chemical Physics, 152 (19), (2020). 
 CP2K: An electronic structure and molecular dynamics software package -
 Quickstep: Efficient and accurate electronic structure calculations.
 https://doi.org/10.1063/5.0007045

 Goerigk, Lars; Hansen, Andreas; Bauer, Christoph; Ehrlich, Stephan;
 Najibi, Asim; Grimme, Stefan. , 19 (48), (2017). 
 A look at the density functional theory zoo with the advanced GMTKN55 database
 for general main group thermochemistry, kinetics and noncovalent interactions.
 https://doi.org/10.1039/C7CP04913G

 Schuett, Ole; Messmer, Peter; Hutter, Juerg; VandeVondele, Joost. 
 Electronic Structure Calculations on Graphics Processing Units, John
 Wiley & Sons, Ltd, 173-190 (2016). 
 GPU-Accelerated Sparse Matrix-Matrix Multiplication for
 Linear Scaling Density Functional Theory.
 https://doi.org/10.1002/9781118670712.ch8

 Heinecke, A; Henry, G; Hutchinson, M; Pabst, H. 
 Proceedings of Intl. Supercomputing Conference, 981-991 (2016). 
 LIBXSMM: Accelerating Small Matrix Multiplications
 by Runtime Code Generation.
 https://doi.org/10.1109/SC.2016.83

 Borstnik, U; VandeVondele, J; Weber, V; Hutter, J. 
 PARALLEL COMPUTING, 40 (5-6), 47-58 (2014). 
 Sparse matrix multiplication: The distributed block-compressed sparse
 row library.
 https://doi.org/10.1016/j.parco.2014.03.012

 Hutter, J; Iannuzzi, M; Schiffmann, F; VandeVondele, J. 
 WIREs Comput Mol Sci., 4 (1), 15-25 (2014). 
 CP2K: atomistic simulations of condensed matter systems.
 https://doi.org/10.1002/wcms.1159

 Grimme, S; Ehrlich, S; Goerigk, L. 
 JOURNAL OF COMPUTATIONAL CHEMISTRY, 32, 1456 (2011). 
 Effect of the damping function in dispersion corrected density functional theory.
 https://doi.org/10.1002/jcc.21759

 Grimme, S; Antony, J; Ehrlich, S; Krieg, H. 
 JOURNAL OF CHEMICAL PHYSICS, 132 (15), 154104 (2010). 
 A consistent and accurate ab initio parametrization of density
 functional dispersion correction (DFT-D) for the 94 elements H-Pu.
 https://doi.org/10.1063/1.3382344

 VandeVondele, J; Hutter, J. 
 JOURNAL OF CHEMICAL PHYSICS, 127 (11), 114105 (2007). 
 Gaussian basis sets for accurate calculations on molecular systems in
 gas and condensed phases.
 https://doi.org/10.1063/1.2770708

 Kuhne, TD; Krack, M; Mohamed, FR; Parrinello, M. 
 PHYSICAL REVIEW LETTERS, 98 (6), 066401 (2007). 
 Efficient and accurate Car-Parrinello-like approach to
 Born-Oppenheimer molecular dynamics.
 https://doi.org/10.1103/PhysRevLett.98.066401

 Krack, M. 
 THEORETICAL CHEMISTRY ACCOUNTS, 114 (1-3), 145-152 (2005). 
 Pseudopotentials for H to Kr optimized for gradient-corrected
 exchange-correlation functionals.
 https://doi.org/10.1007/s00214-005-0655-y

 VandeVondele, J; Krack, M; Mohamed, F; Parrinello, M; Chassaing, T;
 Hutter, J. COMPUTER PHYSICS COMMUNICATIONS, 167 (2), 103-128 (2005). 
 QUICKSTEP: Fast and accurate density functional calculations using a
 mixed Gaussian and plane waves approach.
 https://doi.org/10.1016/j.cpc.2004.12.014

 Frigo, M; Johnson, SG. 
 PROCEEDINGS OF THE IEEE, 93 (2), 216-231 (2005). 
 The design and implementation of FFTW3.
 https://doi.org/10.1109/JPROC.2004.840301

 Kolafa, J. 
 JOURNAL OF COMPUTATIONAL CHEMISTRY, 25 (3), 335-342 (2004). 
 Time-reversible always stable predictor-corrector method for
 molecular dynamics of polarizable molecules.
 https://doi.org/10.1002/jcc.10385

 VandeVondele, J; Hutter, J. 
 JOURNAL OF CHEMICAL PHYSICS, 118 (10), 4365-4369 (2003). 
 An efficient orbital transformation method for electronic structure
 calculations.
 https://doi.org/10.1063/1.1543154

 Martyna, GJ; Tuckerman, ME. 
 JOURNAL OF CHEMICAL PHYSICS, 110 (6), 2810-2821 (1999). 
 A reciprocal space based method for treating long range interactions in
 ab initio and force-field-based calculations in clusters.
 https://doi.org/10.1063/1.477923

 Hartwigsen, C; Goedecker, S; Hutter, J. 
 PHYSICAL REVIEW B, 58 (7), 3641-3662 (1998). 
 Relativistic separable dual-space Gaussian pseudopotentials from H to Rn.
 https://doi.org/10.1103/PhysRevB.58.3641

 Lippert, G; Hutter, J; Parrinello, M. 
 MOLECULAR PHYSICS, 92 (3), 477-487 (1997). 
 A hybrid Gaussian and plane wave density functional scheme.
 https://doi.org/10.1080/002689797170220

 Perdew, JP; Burke, K; Ernzerhof, M. 
 PHYSICAL REVIEW LETTERS, 77 (18), 3865-3868 (1996). 
 Generalized gradient approximation made simple.
 https://doi.org/10.1103/PhysRevLett.77.3865

 Goedecker, S; Teter, M; Hutter, J. 
 PHYSICAL REVIEW B, 54 (3), 1703-1710 (1996). 
 Separable dual-space Gaussian pseudopotentials.
 https://doi.org/10.1103/PhysRevB.54.1703


 -------------------------------------------------------------------------------
 -                                                                             -
 -                                T I M I N G                                  -
 -                                                                             -
 -------------------------------------------------------------------------------
 SUBROUTINE                       CALLS  ASD         SELF TIME        TOTAL TIME
                                MAXIMUM       AVERAGE  MAXIMUM  AVERAGE  MAXIMUM
 CP2K                                 1  1.0    0.015    0.041 1708.220 1708.229
 vb_anal                              1  2.0 1702.449 1702.578 1705.689 1705.705
 -------------------------------------------------------------------------------

 The number of warnings for this run is : 0
 
 -------------------------------------------------------------------------------
  **** **** ******  **  PROGRAM ENDED AT                 2024-06-21 11:52:23.098
 ***** ** ***  *** **   PROGRAM RAN ON                                   nugget1
 **    ****   ******    PROGRAM RAN BY                                      hehn
 ***** **    ** ** **   PROGRAM PROCESS ID                                 93071
  **** **  *******  **  PROGRAM STOPPED IN /beach/hehn/PYRAZIN/Pyrazin_molecule/
                                           CP2K_GPW_PBE_MOLOPT_DZVP/JOB_AD/GEO_O
                                           PT_3/FREQ
