 DBCSR| CPU Multiplication driver                                           XSMM (U)
 DBCSR| Multrec recursion limit                                              512 (U)
 DBCSR| Multiplication stack size                                           1000 (D)
 DBCSR| Maximum elements for images                                    UNLIMITED (U)
 DBCSR| Multiplicative factor virtual images                                   1 (U)
 DBCSR| Use multiplication densification                                       T (D)
 DBCSR| Multiplication size stacks                                             3 (U)
 DBCSR| Use memory pool for CPU allocation                                     F (U)
 DBCSR| Number of 3D layers                                               SINGLE (U)
 DBCSR| Use MPI memory allocation                                              F (U)
 DBCSR| Use RMA algorithm                                                      F (U)
 DBCSR| Use Communication thread                                               T (U)
 DBCSR| Communication thread load                                             87 (D)
 DBCSR| MPI: My process id                                                     0
 DBCSR| MPI: Number of processes                                              16
 DBCSR| OMP: Current number of threads                                         1
 DBCSR| OMP: Max number of threads                                             1
 DBCSR| Split modifier for TAS multiplication algorithm                  1.0E+00 (U)


  **** **** ******  **  PROGRAM STARTED AT               2025-01-05 08:52:30.253
 ***** ** ***  *** **   PROGRAM STARTED ON                           nesh-clk603
 **    ****   ******    PROGRAM STARTED BY                              suphc356
 ***** **    ** ** **   PROGRAM PROCESS ID                               3798720
  **** **  *******  **  PROGRAM STARTED IN /gxfs_work/cau/suphc356/NEWTONX_proje
                                           ct/Pyrazin_molecule/CP2K_GAPW_B3LYP_d
                                           ef2_TZVP/MOLDYN_BA_again/TRAJECTORIES
                                           /TRAJ15/TEMP

 CP2K| version string:                 CP2K version 2024.1 (Development Version)
 CP2K| source code revision number:                                  git:990486a
 CP2K| cp2kflags: omp libint fftw3 libxc libgrpp parallel mpi_f08 scalapack cosm
 CP2K|            a xsmm spglib mkl
 CP2K| is freely available from                            https://www.cp2k.org/
 CP2K| Program compiled at                          Mon Mar 11 08:48:45 CET 2024
 CP2K| Program compiled on                                           nesh-login2
 CP2K| Program compiled for                                                local
 CP2K| Data directory path                 /gxfs_work/cau/suphc356/cp2k_gcc/data
 CP2K| Input file name                                                  cp2k.inp

 GLOBAL| Force Environment number                                              1
 GLOBAL| Basis set file name                                     EMSL_BASIS_SETS
 GLOBAL| Potential file name                                      ALL_POTENTIALS
 GLOBAL| MM Potential file name                                     MM_POTENTIAL
 GLOBAL| Coordinate file name                                      __STD_INPUT__
 GLOBAL| Method name                                                        CP2K
 GLOBAL| Project name                                               testsuite_ad
 GLOBAL| Run type                                                   ENERGY_FORCE
 GLOBAL| FFT library                                                       FFTW3
 GLOBAL| Diagonalization library                                       ScaLAPACK
 GLOBAL| DGEMM library                                                      BLAS
 GLOBAL| Orthonormality check for eigenvectors                          DISABLED
 GLOBAL| Matrix multiplication library                                     COSMA
 GLOBAL| All-to-all communication in single precision                          F
 GLOBAL| FFTs using library dependent lengths                                  F
 GLOBAL| Grid backend                                                       AUTO
 GLOBAL| Global print level                                               MEDIUM
 GLOBAL| MPI I/O enabled                                                       T
 GLOBAL| Total number of message passing processes                            16
 GLOBAL| Number of threads for this process                                    1
 GLOBAL| This output is from process                                           0
 GLOBAL| Stack size for threads created by OpenMP (OMP_STACKSIZE)           256M
 GLOBAL| CPU model name                Intel(R) Xeon(R) Gold 6226R CPU @ 2.90GHz
 GLOBAL| CPUID                                                              1003
 GLOBAL| Compiled for CPUID                                                    0

 *** HINT in environment.F:920 :: The compiler target flags (generic) used ***
 *** to build this binary cannot exploit all extensions of this CPU model  ***
 *** (x86_avx512). Consider compiler target flags as part of FCFLAGS and   ***
 *** CFLAGS (ARCH file).                                                   ***


 MEMORY| system memory details [Kb]
 MEMORY|                        rank 0           min           max       average
 MEMORY| MemTotal            196683224     196683224     196683224     196683224
 MEMORY| MemFree             168033440     168033440     168033440     168033440
 MEMORY| Buffers                886512        886512        886512        886512
 MEMORY| Cached                1433428       1433428       1433428       1433428
 MEMORY| Slab                 11681244      11681244      11681244      11681244
 MEMORY| SReclaimable           266336        266336        266336        266336
 MEMORY| MemLikelyFree       170619716     170619716     170619716     170619716


 *** Fundamental physical constants (SI units) ***

 *** Literature: B. J. Mohr and B. N. Taylor,
 ***             CODATA recommended values of the fundamental physical
 ***             constants: 2006, Web Version 5.1
 ***             http://physics.nist.gov/constants

 Speed of light in vacuum [m/s]                             2.99792458000000E+08
 Magnetic constant or permeability of vacuum [N/A**2]       1.25663706143592E-06
 Electric constant or permittivity of vacuum [F/m]          8.85418781762039E-12
 Planck constant (h) [J*s]                                  6.62606896000000E-34
 Planck constant (h-bar) [J*s]                              1.05457162825177E-34
 Elementary charge [C]                                      1.60217648700000E-19
 Electron mass [kg]                                         9.10938215000000E-31
 Electron g factor [ ]                                     -2.00231930436220E+00
 Proton mass [kg]                                           1.67262163700000E-27
 Fine-structure constant                                    7.29735253760000E-03
 Rydberg constant [1/m]                                     1.09737315685270E+07
 Avogadro constant [1/mol]                                  6.02214179000000E+23
 Boltzmann constant [J/K]                                   1.38065040000000E-23
 Atomic mass unit [kg]                                      1.66053878200000E-27
 Bohr radius [m]                                            5.29177208590000E-11

 *** Conversion factors ***

 [u] -> [a.u.]                                              1.82288848426455E+03
 [Angstrom] -> [Bohr] = [a.u.]                              1.88972613288564E+00
 [a.u.] = [Bohr] -> [Angstrom]                              5.29177208590000E-01
 [a.u.] -> [s]                                              2.41888432650478E-17
 [a.u.] -> [fs]                                             2.41888432650478E-02
 [a.u.] -> [J]                                              4.35974393937059E-18
 [a.u.] -> [N]                                              8.23872205491840E-08
 [a.u.] -> [K]                                              3.15774647902944E+05
 [a.u.] -> [kJ/mol]                                         2.62549961709828E+03
 [a.u.] -> [kcal/mol]                                       6.27509468713739E+02
 [a.u.] -> [Pa]                                             2.94210107994716E+13
 [a.u.] -> [bar]                                            2.94210107994716E+08
 [a.u.] -> [atm]                                            2.90362800883016E+08
 [a.u.] -> [eV]                                             2.72113838565563E+01
 [a.u.] -> [Hz]                                             6.57968392072181E+15
 [a.u.] -> [1/cm] (wave numbers)                            2.19474631370540E+05
 [a.u./Bohr**2] -> [1/cm]                                   5.14048714338585E+03
 

 CELL_TOP| Volume [angstrom^3]:                                      2744.000000
 CELL_TOP| Vector a [angstrom    14.000     0.000     0.000   |a| =    14.000000
 CELL_TOP| Vector b [angstrom     0.000    14.000     0.000   |b| =    14.000000
 CELL_TOP| Vector c [angstrom     0.000     0.000    14.000   |c| =    14.000000
 CELL_TOP| Angle (b,c), alpha [degree]:                                90.000000
 CELL_TOP| Angle (a,c), beta  [degree]:                                90.000000
 CELL_TOP| Angle (a,b), gamma [degree]:                                90.000000
 CELL_TOP| Numerically orthorhombic:                                         YES
 CELL_TOP| Periodicity                                                      NONE

 CELL| Volume [angstrom^3]:                                          2744.000000
 CELL| Vector a [angstrom]:      14.000     0.000     0.000   |a| =    14.000000
 CELL| Vector b [angstrom]:       0.000    14.000     0.000   |b| =    14.000000
 CELL| Vector c [angstrom]:       0.000     0.000    14.000   |c| =    14.000000
 CELL| Angle (b,c), alpha [degree]:                                    90.000000
 CELL| Angle (a,c), beta  [degree]:                                    90.000000
 CELL| Angle (a,b), gamma [degree]:                                    90.000000
 CELL| Numerically orthorhombic:                                             YES
 CELL| Periodicity                                                          NONE

 CELL_REF| Volume [angstrom^3]:                                      2744.000000
 CELL_REF| Vector a [angstrom    14.000     0.000     0.000   |a| =    14.000000
 CELL_REF| Vector b [angstrom     0.000    14.000     0.000   |b| =    14.000000
 CELL_REF| Vector c [angstrom     0.000     0.000    14.000   |c| =    14.000000
 CELL_REF| Angle (b,c), alpha [degree]:                                90.000000
 CELL_REF| Angle (a,c), beta  [degree]:                                90.000000
 CELL_REF| Angle (a,b), gamma [degree]:                                90.000000
 CELL_REF| Numerically orthorhombic:                                         YES
 CELL_REF| Periodicity                                                      NONE

 *******************************************************************************
 *******************************************************************************
 **                                                                           **
 **     #####                         ##              ##                      **
 **    ##   ##            ##          ##              ##                      **
 **   ##     ##                       ##            ######                    **
 **   ##     ##  ##   ##  ##   #####  ##  ##   ####   ##    #####    #####    **
 **   ##     ##  ##   ##  ##  ##      ## ##   ##      ##   ##   ##  ##   ##   **
 **   ##  ## ##  ##   ##  ##  ##      ####     ###    ##   ######   ######    **
 **    ##  ###   ##   ##  ##  ##      ## ##      ##   ##   ##       ##        **
 **     #######   #####   ##   #####  ##  ##  ####    ##    #####   ##        **
 **           ##                                                    ##        **
 **                                                                           **
 **                                                ... make the atoms dance   **
 **                                                                           **
 **            Copyright (C) by CP2K developers group (2000-2024)             **
 **                      J. Chem. Phys. 152, 194103 (2020)                    **
 **                                                                           **
 *******************************************************************************

 DFT| Spin restricted Kohn-Sham (RKS) calculation                            RKS
 DFT| Multiplicity                                                             1
 DFT| Number of spin states                                                    1
 DFT| Charge                                                                   0
 DFT| Self-interaction correction (SIC)                                       NO
 DFT| Cutoffs: density                                              1.000000E-10
 DFT|          gradient                                             1.000000E-10
 DFT|          tau                                                  1.000000E-10
 DFT|          cutoff_smoothing_range                               0.000000E+00
 DFT| XC density smoothing                                                  NONE
 DFT| XC derivatives                                                          PW

 FUNCTIONAL| BECKE88:
 FUNCTIONAL| A. Becke, Phys. Rev. A 38, 3098 (1988) {LDA version}               
 FUNCTIONAL| LYP:
 FUNCTIONAL| C. Lee, W. Yang, R.G. Parr, Phys. Rev. B, 37, 785 (1988) {LDA versi
 FUNCTIONAL| on}                                                                
 FUNCTIONAL| VWN:
 FUNCTIONAL| S. H. Vosko, L. Wilk and M. Nusair, Can. J. Phys. 58, 1200 (1980) {
 FUNCTIONAL| LDA version}                                                       
 FUNCTIONAL| XALPHA:
 FUNCTIONAL| Dirac/Slater local exchange; parameter=  0.666 {LDA}               

 vdW POTENTIAL|                                                   Pair Potential
 vdW POTENTIAL|          DFT-D3 (Version 3.1)
 vdW POTENTIAL|          Potential Form: S. Grimme et al, JCP 132: 154104 (2010)
 vdW POTENTIAL|          Zero Damping
 vdW POTENTIAL|          Cutoff Radius [Bohr]:                             37.79
 vdW POTENTIAL|          s6 Scaling Factor:                               1.0000
 vdW POTENTIAL|          sr6 Scaling Factor:                              1.2610
 vdW POTENTIAL|          s8 Scaling Factor:                               1.7030
 vdW POTENTIAL|          Cutoff for CN calculation:                   0.1000E-05

 QS| Method:                                                                GAPW
 QS| Density plane wave grid type                        NON-SPHERICAL FULLSPACE
 QS| Number of grid levels:                                                    4
 QS| Density cutoff [a.u.]:                                                200.0
 QS| Multi grid cutoff [a.u.]: 1) grid level                               200.0
 QS|                           2) grid level                                66.7
 QS|                           3) grid level                                22.2
 QS|                           4) grid level                                 7.4
 QS| Grid level progression factor:                                          3.0
 QS| Relative density cutoff [a.u.]:                                        30.0
 QS| Interaction thresholds: eps_pgf_orb:                                1.0E-07
 QS|                         eps_filter_matrix:                          0.0E+00
 QS|                         eps_core_charge:                            1.0E-16
 QS|                         eps_rho_gspace:                             1.0E-14
 QS|                         eps_rho_rspace:                             1.0E-14
 QS|                         eps_gvg_rspace:                             1.0E-07
 QS|                         eps_ppl:                                    1.0E-02
 QS|                         eps_ppnl:                                   1.0E-09
 QS| GAPW|      One center basis extended with primitives (small:s)
 QS| GAPW|                   eps_fit:                                    1.0E-04
 QS| GAPW|                   eps_iso:                                    1.0E-12
 QS| GAPW|                   eps_svd:                                    1.0E-08
 QS| GAPW|                   eps_cpc:                                    1.0E-14
 QS| GAPW|   atom-r-grid: quadrature:                                     GC_LOG
 QS| GAPW|      atom-s-grid:  max l :                                          6
 QS| GAPW|      max_l_rho0 :                                                   4


 ATOMIC KIND INFORMATION

  1. Atomic kind: n                                     Number of atoms:       2

     Orbital Basis Set                                        Ahlrichs-def2-TZVP

       Number of orbital shell sets:                                          11
       Number of orbital shells:                                              11
       Number of primitive Cartesian functions:                               20
       Number of Cartesian basis functions:                                   36
       Number of spherical basis functions:                                   31
       Norm type:                                                              2

       Normalised Cartesian orbitals:

                        Set   Shell   Orbital            Exponent    Coefficient

                          1       1    1s            19730.800647       0.695604
                                                      2957.895874       1.298610
                                                       673.221336       2.219088
                                                       190.682495       3.463661
                                                        62.295442       4.696756
                                                        22.654161       4.952251

                          2       1    1s                8.979148       2.388068
                                                         3.686300       0.733788

                          3       1    1s                0.846601       0.629027

                          4       1    1s                0.336471       0.314863

                          5       1    1s                0.136477       0.160031

                          6       1    1px              49.200381       2.126481
                                                        11.346791       2.327937
                                                         3.427397       2.048573
                                                         1.178553       1.260732
                          6       1    1py              49.200381       2.126481
                                                        11.346791       2.327937
                                                         3.427397       2.048573
                                                         1.178553       1.260732
                          6       1    1pz              49.200381       2.126481
                                                        11.346791       2.327937
                                                         3.427397       2.048573
                                                         1.178553       1.260732

                          7       1    1px               0.416422       0.476823
                          7       1    1py               0.416422       0.476823
                          7       1    1pz               0.416422       0.476823

                          8       1    1px               0.142608       0.124917
                          8       1    1py               0.142608       0.124917
                          8       1    1pz               0.142608       0.124917

                          9       1    1dx2              1.654000       3.970513
                          9       1    1dxy              1.654000       6.877130
                          9       1    1dxz              1.654000       6.877130
                          9       1    1dy2              1.654000       3.970513
                          9       1    1dyz              1.654000       6.877130
                          9       1    1dz2              1.654000       3.970513

                         10       1    1dx2              0.469000       0.437484
                         10       1    1dxy              0.469000       0.757744
                         10       1    1dxz              0.469000       0.757744
                         10       1    1dy2              0.469000       0.437484
                         10       1    1dyz              0.469000       0.757744
                         10       1    1dz2              0.469000       0.437484

                         11       1    1fx3              1.093000       1.798249
                         11       1    1fx2y             1.093000       4.021007
                         11       1    1fx2z             1.093000       4.021007
                         11       1    1fxy2             1.093000       4.021007
                         11       1    1fxyz             1.093000       6.964588
                         11       1    1fxz2             1.093000       4.021007
                         11       1    1fy3              1.093000       1.798249
                         11       1    1fy2z             1.093000       4.021007
                         11       1    1fyz2             1.093000       4.021007
                         11       1    1fz3              1.093000       1.798249

       Atomic covalent radius [Angstrom]:                                  0.750

       Atomic van der Waals radius [Angstrom]:                             1.550

     The atoms of this atomic kind are PAW atoms (GAPW):
       Hard Gaussian function radius:                                      1.400
       Rho0 radius:                                                        1.400
       Maximum GTO radius used for PAW projector construction:            24.566

     GAPW Soft Basis Set                                 Ahlrichs-def2-TZVP_soft

       Number of orbital shell sets:                                          11
       Number of orbital shells:                                              11
       Number of primitive Cartesian functions:                               11
       Number of Cartesian basis functions:                                   36
       Number of spherical basis functions:                                   31
       Norm type:                                                              2

       Normalised Cartesian orbitals:

                        Set   Shell   Orbital            Exponent    Coefficient

                          1       1    1s         

                          2       1    1s                3.686300       0.733788

                          3       1    1s                0.846601       0.629027

                          4       1    1s                0.336471       0.314863

                          5       1    1s                0.136477       0.160031

                          6       1    1px               3.427397       2.048573
                                                         1.178553       1.260732
                          6       1    1py               3.427397       2.048573
                                                         1.178553       1.260732
                          6       1    1pz               3.427397       2.048573
                                                         1.178553       1.260732

                          7       1    1px               0.416422       0.476823
                          7       1    1py               0.416422       0.476823
                          7       1    1pz               0.416422       0.476823

                          8       1    1px               0.142608       0.124917
                          8       1    1py               0.142608       0.124917
                          8       1    1pz               0.142608       0.124917

                          9       1    1dx2              1.654000       3.970513
                          9       1    1dxy              1.654000       6.877130
                          9       1    1dxz              1.654000       6.877130
                          9       1    1dy2              1.654000       3.970513
                          9       1    1dyz              1.654000       6.877130
                          9       1    1dz2              1.654000       3.970513

                         10       1    1dx2              0.469000       0.437484
                         10       1    1dxy              0.469000       0.757744
                         10       1    1dxz              0.469000       0.757744
                         10       1    1dy2              0.469000       0.437484
                         10       1    1dyz              0.469000       0.757744
                         10       1    1dz2              0.469000       0.437484

                         11       1    1fx3              1.093000       1.798249
                         11       1    1fx2y             1.093000       4.021007
                         11       1    1fx2z             1.093000       4.021007
                         11       1    1fxy2             1.093000       4.021007
                         11       1    1fxyz             1.093000       6.964588
                         11       1    1fxz2             1.093000       4.021007
                         11       1    1fy3              1.093000       1.798249
                         11       1    1fy2z             1.093000       4.021007
                         11       1    1fyz2             1.093000       4.021007
                         11       1    1fz3              1.093000       1.798249

     AE Potential information for                                            ALL

       Description:                                       All-electron potential
                                          Krack, Parrinello, PCCP 2, 2105 (2000)

       Gaussian exponent of the core charge distribution:               5.979100
       Electronic configuration (s p d ...):                           4   3   0

  2. Atomic kind: c                                     Number of atoms:       4

     Orbital Basis Set                                        Ahlrichs-def2-TZVP

       Number of orbital shell sets:                                          11
       Number of orbital shells:                                              11
       Number of primitive Cartesian functions:                               20
       Number of Cartesian basis functions:                                   36
       Number of spherical basis functions:                                   31
       Norm type:                                                              2

       Normalised Cartesian orbitals:

                        Set   Shell   Orbital            Exponent    Coefficient

                          1       1    1s            13575.349682       0.543591
                                                      2035.233368       1.014554
                                                       463.225624       1.731573
                                                       131.200196       2.691038
                                                        42.853016       3.604455
                                                        15.584186       3.702556

                          2       1    1s                6.206714       1.838354
                                                         2.576490       0.544758

                          3       1    1s                0.576963       0.471815

                          4       1    1s                0.229728       0.236494

                          5       1    1s                0.095164       0.122114

                          6       1    1px              34.697232       1.359665
                                                         7.958262       1.451259
                                                         2.378083       1.270923
                                                         0.814332       0.802572
                          6       1    1py              34.697232       1.359665
                                                         7.958262       1.451259
                                                         2.378083       1.270923
                                                         0.814332       0.802572
                          6       1    1pz              34.697232       1.359665
                                                         7.958262       1.451259
                                                         2.378083       1.270923
                                                         0.814332       0.802572

                          7       1    1px               0.288875       0.301876
                          7       1    1py               0.288875       0.301876
                          7       1    1pz               0.288875       0.301876

                          8       1    1px               0.100568       0.080727
                          8       1    1py               0.100568       0.080727
                          8       1    1pz               0.100568       0.080727

                          9       1    1dx2              1.097000       1.935401
                          9       1    1dxy              1.097000       3.352214
                          9       1    1dxz              1.097000       3.352214
                          9       1    1dy2              1.097000       1.935401
                          9       1    1dyz              1.097000       3.352214
                          9       1    1dz2              1.097000       1.935401

                         10       1    1dx2              0.318000       0.221644
                         10       1    1dxy              0.318000       0.383899
                         10       1    1dxz              0.318000       0.383899
                         10       1    1dy2              0.318000       0.221644
                         10       1    1dyz              0.318000       0.383899
                         10       1    1dz2              0.318000       0.221644

                         11       1    1fx3              0.761000       0.796288
                         11       1    1fx2y             0.761000       1.780553
                         11       1    1fx2z             0.761000       1.780553
                         11       1    1fxy2             0.761000       1.780553
                         11       1    1fxyz             0.761000       3.084008
                         11       1    1fxz2             0.761000       1.780553
                         11       1    1fy3              0.761000       0.796288
                         11       1    1fy2z             0.761000       1.780553
                         11       1    1fyz2             0.761000       1.780553
                         11       1    1fz3              0.761000       0.796288

       Atomic covalent radius [Angstrom]:                                  0.770

       Atomic van der Waals radius [Angstrom]:                             1.700

     The atoms of this atomic kind are PAW atoms (GAPW):
       Hard Gaussian function radius:                                      1.520
       Rho0 radius:                                                        1.520
       Maximum GTO radius used for PAW projector construction:            24.566

     GAPW Soft Basis Set                                 Ahlrichs-def2-TZVP_soft

       Number of orbital shell sets:                                          11
       Number of orbital shells:                                              11
       Number of primitive Cartesian functions:                               11
       Number of Cartesian basis functions:                                   36
       Number of spherical basis functions:                                   31
       Norm type:                                                              2

       Normalised Cartesian orbitals:

                        Set   Shell   Orbital            Exponent    Coefficient

                          1       1    1s         

                          2       1    1s                2.576490       0.544758

                          3       1    1s                0.576963       0.471815

                          4       1    1s                0.229728       0.236494

                          5       1    1s                0.095164       0.122114

                          6       1    1px               2.378083       1.270923
                                                         0.814332       0.802572
                          6       1    1py               2.378083       1.270923
                                                         0.814332       0.802572
                          6       1    1pz               2.378083       1.270923
                                                         0.814332       0.802572

                          7       1    1px               0.288875       0.301876
                          7       1    1py               0.288875       0.301876
                          7       1    1pz               0.288875       0.301876

                          8       1    1px               0.100568       0.080727
                          8       1    1py               0.100568       0.080727
                          8       1    1pz               0.100568       0.080727

                          9       1    1dx2              1.097000       1.935401
                          9       1    1dxy              1.097000       3.352214
                          9       1    1dxz              1.097000       3.352214
                          9       1    1dy2              1.097000       1.935401
                          9       1    1dyz              1.097000       3.352214
                          9       1    1dz2              1.097000       1.935401

                         10       1    1dx2              0.318000       0.221644
                         10       1    1dxy              0.318000       0.383899
                         10       1    1dxz              0.318000       0.383899
                         10       1    1dy2              0.318000       0.221644
                         10       1    1dyz              0.318000       0.383899
                         10       1    1dz2              0.318000       0.221644

                         11       1    1fx3              0.761000       0.796288
                         11       1    1fx2y             0.761000       1.780553
                         11       1    1fx2z             0.761000       1.780553
                         11       1    1fxy2             0.761000       1.780553
                         11       1    1fxyz             0.761000       3.084008
                         11       1    1fxz2             0.761000       1.780553
                         11       1    1fy3              0.761000       0.796288
                         11       1    1fy2z             0.761000       1.780553
                         11       1    1fyz2             0.761000       1.780553
                         11       1    1fz3              0.761000       0.796288

     AE Potential information for                                            ALL

       Description:                                       All-electron potential
                                          Krack, Parrinello, PCCP 2, 2105 (2000)

       Gaussian exponent of the core charge distribution:               4.109048
       Electronic configuration (s p d ...):                           4   2   0

  3. Atomic kind: h                                     Number of atoms:       4

     Orbital Basis Set                                        Ahlrichs-def2-TZVP

       Number of orbital shell sets:                                           4
       Number of orbital shells:                                               4
       Number of primitive Cartesian functions:                                6
       Number of Cartesian basis functions:                                    6
       Number of spherical basis functions:                                    6
       Norm type:                                                              2

       Normalised Cartesian orbitals:

                        Set   Shell   Orbital            Exponent    Coefficient

                          1       1    1s               34.061341       0.255630
                                                         5.123575       0.461360
                                                         1.164663       0.681121

                          2       1    1s                0.327230       0.308355

                          3       1    1s                0.103072       0.129648

                          4       1    1px               0.800000       1.078456
                          4       1    1py               0.800000       1.078456
                          4       1    1pz               0.800000       1.078456

       Atomic covalent radius [Angstrom]:                                  0.320

       Atomic van der Waals radius [Angstrom]:                             1.090

     The atoms of this atomic kind are PAW atoms (GAPW):
       Hard Gaussian function radius:                                      1.000
       Rho0 radius:                                                        1.000
       Maximum GTO radius used for PAW projector construction:            24.566

     GAPW Soft Basis Set                                 Ahlrichs-def2-TZVP_soft

       Number of orbital shell sets:                                           4
       Number of orbital shells:                                               4
       Number of primitive Cartesian functions:                                5
       Number of Cartesian basis functions:                                    6
       Number of spherical basis functions:                                    6
       Norm type:                                                              2

       Normalised Cartesian orbitals:

                        Set   Shell   Orbital            Exponent    Coefficient

                          1       1    1s                5.123575       0.461360
                                                         1.164663       0.681121

                          2       1    1s                0.327230       0.308355

                          3       1    1s                0.103072       0.129648

                          4       1    1px               0.800000       1.078456
                          4       1    1py               0.800000       1.078456
                          4       1    1pz               0.800000       1.078456

     AE Potential information for                                            ALL

       Description:                                       All-electron potential
                                          Krack, Parrinello, PCCP 2, 2105 (2000)

       Gaussian exponent of the core charge distribution:              12.500000
       Electronic configuration (s p d ...):                           1   0   0


 MOLECULE KIND INFORMATION


 All atoms are their own molecule, skipping detailed information


 TOTAL NUMBERS AND MAXIMUM NUMBERS

  Total number of            - Atomic kinds:                                   3
                             - Atoms:                                         10
                             - Shell sets:                                    82
                             - Shells:                                        82
                             - Primitive Cartesian functions:                144
                             - Cartesian basis functions:                    240
                             - Spherical basis functions:                    210

  Maximum angular momentum of the orbital basis functions:                     3


 MODULE QUICKSTEP: ATOMIC COORDINATES IN ANGSTROM

   Atom Kind Element         X             Y             Z       Z(eff)     Mass
      1    1 n     7      6.851525      8.283211      7.694869   7.0000  14.0067
      2    1 n     7      6.898491      6.012863      6.429029   7.0000  14.0067
      3    2 c     6      6.946511      7.225500      8.476259   6.0000  12.0107
      4    2 c     6      6.895658      6.024620      7.732947   6.0000  12.0107
      5    2 c     6      6.933691      8.379240      6.331569   6.0000  12.0107
      6    2 c     6      6.880562      7.199202      5.644842   6.0000  12.0107
      7    3 h     1      6.883075      7.160092      9.413165   1.0000   1.0079
      8    3 h     1      6.740321      4.822820      8.468930   1.0000   1.0079
      9    3 h     1      7.129133      9.177180      5.715768   1.0000   1.0079
     10    3 h     1      7.259679      7.034209      4.586835   1.0000   1.0079



 SCF PARAMETERS         Density guess:                                   RESTART
                        --------------------------------------------------------
                        max_scf:                                              50
                        max_scf_history:                                       0
                        max_diis:                                              4
                        --------------------------------------------------------
                        eps_scf:                                        1.00E-08
                        eps_scf_history:                                0.00E+00
                        eps_diis:                                       1.00E-01
                        eps_eigval:                                     1.00E-05
                        --------------------------------------------------------
                        level_shift [a.u.]:                             0.000000
                        --------------------------------------------------------
                        Outer loop SCF in use 
                        No variables optimised in outer loop
                        eps_scf                                         1.00E-08
                        max_scf                                              900
                        No outer loop optimization
                        step_size                                       5.00E-01

 PW_GRID| Information for grid number                                          1
 PW_GRID| Grid distributed over                                    16 processors
 PW_GRID| Real space group dimensions                                    16    1
 PW_GRID| the grid is blocked:                                                NO
 PW_GRID| Cutoff [a.u.]                                                    400.0
 PW_GRID| spherical cutoff:                                                   NO
 PW_GRID|   Bounds   1           -120     119                Points:         240
 PW_GRID|   Bounds   2           -120     119                Points:         240
 PW_GRID|   Bounds   3           -120     119                Points:         240
 PW_GRID| Volume element (a.u.^3)  0.1340E-02     Volume (a.u.^3)     18517.4301
 PW_GRID| Grid span                                                    FULLSPACE
 PW_GRID|   Distribution                         Average         Max         Min
 PW_GRID|   G-Vectors                           864000.0      864000      864000
 PW_GRID|   G-Rays                                3600.0        3600        3600
 PW_GRID|   Real Space Points                   864000.0      864000      864000

 PW_GRID| Information for grid number                                          2
 PW_GRID| Number of the reference grid                                         1
 PW_GRID| Grid distributed over                                    16 processors
 PW_GRID| Real space group dimensions                                    16    1
 PW_GRID| the grid is blocked:                                                NO
 PW_GRID| Cutoff [a.u.]                                                    200.0
 PW_GRID| spherical cutoff:                                                   NO
 PW_GRID|   Bounds   1            -90      89                Points:         180
 PW_GRID|   Bounds   2            -90      89                Points:         180
 PW_GRID|   Bounds   3            -90      89                Points:         180
 PW_GRID| Volume element (a.u.^3)  0.3175E-02     Volume (a.u.^3)     18517.4301
 PW_GRID| Grid span                                                    FULLSPACE
 PW_GRID|   Distribution                         Average         Max         Min
 PW_GRID|   G-Vectors                           364500.0      364680      364320
 PW_GRID|   G-Rays                                2025.0        2026        2024
 PW_GRID|   Real Space Points                   364500.0      388800      356400

 PW_GRID| Information for grid number                                          3
 PW_GRID| Number of the reference grid                                         2
 PW_GRID| Grid distributed over                                    16 processors
 PW_GRID| Real space group dimensions                                    16    1
 PW_GRID| the grid is blocked:                                                NO
 PW_GRID| Cutoff [a.u.]                                                     66.7
 PW_GRID| spherical cutoff:                                                   NO
 PW_GRID|   Bounds   1            -50      49                Points:         100
 PW_GRID|   Bounds   2            -50      49                Points:         100
 PW_GRID|   Bounds   3            -50      49                Points:         100
 PW_GRID| Volume element (a.u.^3)  0.1852E-01     Volume (a.u.^3)     18517.4301
 PW_GRID| Grid span                                                    FULLSPACE
 PW_GRID|   Distribution                         Average         Max         Min
 PW_GRID|   G-Vectors                            62500.0       62600       62400
 PW_GRID|   G-Rays                                 625.0         626         624
 PW_GRID|   Real Space Points                    62500.0       70000       60000

 PW_GRID| Information for grid number                                          4
 PW_GRID| Number of the reference grid                                         2
 PW_GRID| Grid distributed over                                    16 processors
 PW_GRID| Real space group dimensions                                    16    1
 PW_GRID| the grid is blocked:                                                NO
 PW_GRID| Cutoff [a.u.]                                                     22.2
 PW_GRID| spherical cutoff:                                                   NO
 PW_GRID|   Bounds   1            -30      29                Points:          60
 PW_GRID|   Bounds   2            -30      29                Points:          60
 PW_GRID|   Bounds   3            -30      29                Points:          60
 PW_GRID| Volume element (a.u.^3)  0.8573E-01     Volume (a.u.^3)     18517.4301
 PW_GRID| Grid span                                                    FULLSPACE
 PW_GRID|   Distribution                         Average         Max         Min
 PW_GRID|   G-Vectors                            13500.0       13560       13440
 PW_GRID|   G-Rays                                 225.0         226         224
 PW_GRID|   Real Space Points                    13500.0       14400       10800

 PW_GRID| Information for grid number                                          5
 PW_GRID| Number of the reference grid                                         2
 PW_GRID| Grid distributed over                                    16 processors
 PW_GRID| Real space group dimensions                                    16    1
 PW_GRID| the grid is blocked:                                                NO
 PW_GRID| Cutoff [a.u.]                                                      7.4
 PW_GRID| spherical cutoff:                                                   NO
 PW_GRID|   Bounds   1            -18      17                Points:          36
 PW_GRID|   Bounds   2            -18      17                Points:          36
 PW_GRID|   Bounds   3            -18      17                Points:          36
 PW_GRID| Volume element (a.u.^3)  0.3969         Volume (a.u.^3)     18517.4301
 PW_GRID| Grid span                                                    FULLSPACE
 PW_GRID|   Distribution                         Average         Max         Min
 PW_GRID|   G-Vectors                             2916.0        2952        2880
 PW_GRID|   G-Rays                                  81.0          82          80
 PW_GRID|   Real Space Points                     2916.0        3888        2592

 POISSON| Solver                                          Martyna-Tuckerman (MT)
 POISSON| MT| Alpha                                                        7.000
 POISSON| MT| Relative cutoff                                                2.0
 POISSON| Periodicity                                                       NONE

 RS_GRID| Information for grid number                                          2
 RS_GRID|   Bounds   1            -90      89                Points:         180
 RS_GRID|   Bounds   2            -90      89                Points:         180
 RS_GRID|   Bounds   3            -90      89                Points:         180
 RS_GRID| Real space distribution over                                  4 groups
 RS_GRID| Real space distribution along direction                              2
 RS_GRID| Border size                                                         31
 RS_GRID| Real space distribution over                                  4 groups
 RS_GRID| Real space distribution along direction                              3
 RS_GRID| Border size                                                         31
 RS_GRID|   Distribution                         Average         Max         Min
 RS_GRID|   Planes                                 107.0         107         107
 RS_GRID|   Distribution                         Average         Max         Min
 RS_GRID|   Planes                                 107.0         107         107

 RS_GRID| Information for grid number                                          3
 RS_GRID|   Bounds   1            -50      49                Points:         100
 RS_GRID|   Bounds   2            -50      49                Points:         100
 RS_GRID|   Bounds   3            -50      49                Points:         100
 RS_GRID| Real space fully replicated
 RS_GRID| Group size                                                           1

 RS_GRID| Information for grid number                                          4
 RS_GRID|   Bounds   1            -30      29                Points:          60
 RS_GRID|   Bounds   2            -30      29                Points:          60
 RS_GRID|   Bounds   3            -30      29                Points:          60
 RS_GRID| Real space fully replicated
 RS_GRID| Group size                                                           1

 RS_GRID| Information for grid number                                          5
 RS_GRID|   Bounds   1            -18      17                Points:          36
 RS_GRID|   Bounds   2            -18      17                Points:          36
 RS_GRID|   Bounds   3            -18      17                Points:          36
 RS_GRID| Real space fully replicated
 RS_GRID| Group size                                                           1

  HFX_INFO| Replica ID:                                                        1
  HFX_INFO| FRACTION:                                               0.2000000000
  HFX_INFO| Interaction Potential:                                       COULOMB
  HFX_INFO| EPS_SCHWARZ:                                                 1.0E-10
  HFX_INFO| EPS_SCHWARZ_FORCES                                           1.0E-08
  HFX_INFO| EPS_STORAGE_SCALING:                                         1.0E+00
  HFX_INFO| NBINS:                                                            64
  HFX_INFO| BLOCK_SIZE:                                                        1
  HFX_INFO| Number of periodic shells considered:                           NONE
  HFX_INFO| Number of periodic cells considered:                            NONE


 Number of electrons:                                                         42
 Number of occupied orbitals:                                                 21
 Number of molecular orbitals:                                                21

 Number of orbital functions:                                                210
 Number of independent orbital functions:                                    210

 Extrapolation method: initial_guess


 SCF WAVEFUNCTION OPTIMIZATION

  ----------------------------------- OT ---------------------------------------
  Minimizer      : DIIS                : direct inversion
                                         in the iterative subspace
                                         using   7 DIIS vectors
                                         safer DIIS on
  Preconditioner : FULL_ALL            : diagonalization, state selective
  Precond_solver : DEFAULT
  stepsize       :    0.15000000                  energy_gap     :    0.08000000
  eps_taylor     :   0.10000E-15                  max_taylor     :             4
  ----------------------------------- OT ---------------------------------------

  Step     Update method      Time    Convergence         Total energy    Change
  ------------------------------------------------------------------------------

  HFX_MEM_INFO| Est. max. program size before HFX [MiB]:                     638
  HFX_MEM_INFO| Number of cart. primitive ERI's calculated:           1714026908
  HFX_MEM_INFO| Number of sph. ERI's calculated:                       315395213
  HFX_MEM_INFO| Number of sph. ERI's stored in-core:                   315395213
  HFX_MEM_INFO| Number of sph. ERI's stored on disk:                           0
  HFX_MEM_INFO| Number of sph. ERI's calculated on the fly:                    0
  HFX_MEM_INFO| Total memory consumption ERI's RAM [MiB]:                    937
  HFX_MEM_INFO| Whereof max-vals [MiB]:                                        5
  HFX_MEM_INFO| Total compression factor ERI's RAM:                         2.57
  HFX_MEM_INFO| Total memory consumption ERI's disk [MiB]:                     0
  HFX_MEM_INFO| Total compression factor ERI's disk:                        0.00
  HFX_MEM_INFO| Size of density/Fock matrix [MiB]:                             0
  HFX_MEM_INFO| Size of buffers [MiB]:                                         0
  HFX_MEM_INFO| Est. max. program size after HFX  [MiB]:                     696

     1 OT DIIS     0.15E+00    5.8     0.01015275      -264.1034414063 -2.64E+02
     2 OT DIIS     0.15E+00    1.0     0.00457718      -264.1497887693 -4.63E-02
     3 OT DIIS     0.15E+00    1.0     0.00234809      -264.1596428124 -9.85E-03
     4 OT DIIS     0.15E+00    1.0     0.00049363      -264.1612367758 -1.59E-03
     5 OT DIIS     0.15E+00    1.0     0.00022271      -264.1612916098 -5.48E-05
     6 OT DIIS     0.15E+00    1.0     0.00005449      -264.1613071155 -1.55E-05
     7 OT DIIS     0.15E+00    1.0     0.00002737      -264.1613083512 -1.24E-06
     8 OT DIIS     0.15E+00    1.0     0.00000633      -264.1613086101 -2.59E-07
     9 OT DIIS     0.15E+00    1.0     0.00000310      -264.1613086297 -1.96E-08
    10 OT DIIS     0.15E+00    1.0     0.00000123      -264.1613086323 -2.61E-09
    11 OT DIIS     0.15E+00    1.0     0.00000041      -264.1613086330 -6.65E-10
    12 OT DIIS     0.15E+00    1.0     0.00000019      -264.1613086330 -6.00E-11
    13 OT DIIS     0.15E+00    1.0     0.00000009      -264.1613086331 -1.17E-11
    14 OT DIIS     0.15E+00    1.0     0.00000004      -264.1613086331  2.50E-12
    15 OT DIIS     0.15E+00    1.0     0.00000002      -264.1613086331  9.09E-13
    16 OT DIIS     0.15E+00    1.0     7.4666E-09      -264.1613086331 -4.83E-12

  *** SCF run converged in    16 steps ***


  Electronic density on regular grids:        -30.6469811671       11.3530188329
  Core density on regular grids:               42.0000000000       -0.0000000000
  Hard and soft densities (Lebedev):          -96.0088206987      -84.6558018528
  Total Rho_soft + Rho1_hard - Rho1_soft      -42.0000000131
  Total charge density (r-space):              -0.0000000131
  Total Rho_soft + Rho0_soft (g-space):        -0.0000000386

  Overlap energy of the core charge distribution:               0.00004221814723
  Self energy of the core charge distribution:               -217.69203579805162
  Core Hamiltonian energy:                                    -41.95923257586183
  Hartree energy:                                             109.83749367482820
  Exchange-correlation energy:                                -11.18517012023921
  Hartree-Fock Exchange energy:                                -7.04880699034719
  Dispersion energy:                                           -0.00398672640060

  GAPW| Exc from hard and soft atomic rho1:                   -18.55243011474124
  GAPW| local Eh = 1 center integrals:                        -77.55718220039034

  Total energy:                                              -264.16130863305665

  outer SCF iter =    1 RMS gradient =   0.75E-08 energy =       -264.1613086331
  outer SCF loop converged in   1 iterations or   16 steps


 !-----------------------------------------------------------------------------!
                     Mulliken Population Analysis

 #  Atom  Element  Kind  Atomic population                           Net charge
       1     n        1          7.207273                             -0.207273
       2     n        1          7.226045                             -0.226045
       3     c        2          6.014528                             -0.014528
       4     c        2          6.011357                             -0.011357
       5     c        2          6.005804                             -0.005804
       6     c        2          6.008456                             -0.008456
       7     h        3          0.866177                              0.133823
       8     h        3          0.922232                              0.077768
       9     h        3          0.870163                              0.129837
      10     h        3          0.867964                              0.132036
 # Total charge                             42.000000                 -0.000000

 !-----------------------------------------------------------------------------!

 !-----------------------------------------------------------------------------!
                           Hirshfeld Charges

  #Atom  Element  Kind  Ref Charge     Population                    Net charge
      1       n      1       7.000          7.296                        -0.296
      2       n      1       7.000          7.300                        -0.300
      3       c      2       6.000          6.300                        -0.300
      4       c      2       6.000          6.343                        -0.343
      5       c      2       6.000          6.326                        -0.326
      6       c      2       6.000          6.349                        -0.349
      7       h      3       1.000          0.513                         0.487
      8       h      3       1.000          0.546                         0.454
      9       h      3       1.000          0.506                         0.494
     10       h      3       1.000          0.505                         0.495

  Total Charge                                                            0.016
 !-----------------------------------------------------------------------------!

 *******************************************************************************
 **                                                                           **
 **         ######## #######   #######   ######## #######  ########           **
 **            ##    ##     ## ##     ## ##       ##   ##     ##              **
 **            ##    ##     ## ##     ## ######   #######     ##              **
 **            ##    ##     ## ##     ## ##       ##          ##              **
 **            ##    #######   #######   ##       ##          ##              **
 **                                                                           **
 *******************************************************************************
 KERNEL|                                                                    FULL
 FUNCTIONAL| BECKE88:
 FUNCTIONAL| A. Becke, Phys. Rev. A 38, 3098 (1988) {LDA version}               
 FUNCTIONAL| LYP:
 FUNCTIONAL| C. Lee, W. Yang, R.G. Parr, Phys. Rev. B, 37, 785 (1988) {LDA versi
 FUNCTIONAL| on}                                                                
 FUNCTIONAL| VWN:
 FUNCTIONAL| S. H. Vosko, L. Wilk and M. Nusair, Can. J. Phys. 58, 1200 (1980) {
 FUNCTIONAL| LDA version}                                                       
 FUNCTIONAL| XALPHA:
 FUNCTIONAL| Dirac/Slater local exchange; parameter=  0.666 {LDA}               
 KERNEL|                                                          Exact Exchange
 KERNEL| Spin symmetry of excitations                                    Singlet
 TDDFPT| Number of states calculated                                           9
 TDDFPT| Number of Davidson iterations                                       100
 TDDFPT| Davidson iteration convergence                                0.367E-09
 TDDFPT| Max. number of Krylov space vectors                                5000
 TDDFPT| Molecular Orbitals:        Spin       AOs       Occ      Virt     Total
 TDDFPT|                               1       210        21       189       210
 
 -------------------------------------------------------------------------------
 -                            TDDFPT Initial Guess                             -
 -------------------------------------------------------------------------------
          State         Occupied      ->      Virtual          Excitation
          number         orbital              orbital          energy (eV)
 -------------------------------------------------------------------------------
             1               21                   22              4.51001
             2               21                   23              5.21368
             3               20                   22              6.00928
             4               19                   22              6.25437
             5               20                   23              6.71296
             6               21                   24              6.92311
             7               19                   23              6.95804
             8               18                   22              7.05025
             9               18                   23              7.75392

      Number of active states:                                       3969
 -------------------------------------------------------------------------------
 
 -------------------------------------------------------------------------------
 -                      TDDFPT WAVEFUNCTION OPTIMIZATION                       -
 -------------------------------------------------------------------------------

          Step            Time         Convergence           Conv. states
 -------------------------------------------------------------------------------

    State    Exc. energy (eV)      Convergence (eV)
        1       3.2553304            -1.2547E+00
        2       3.9243953            -1.2893E+00
        3       4.7000996            -1.3092E+00
        4       5.4101762            -8.4419E-01
        5       5.7705924            -9.4237E-01
        6       6.5033887            -4.1972E-01
        7       7.6612217             7.0318E-01
        8       9.6267323             2.5765E+00
        9      10.0986891             2.3448E+00

             1            10.5          9.4684E-02                      0

    State    Exc. energy (eV)      Convergence (eV)
        1       3.1907813            -6.4549E-02
        2       3.8804252            -4.3970E-02
        3       4.6153618            -8.4738E-02
        4       5.3719740            -3.8202E-02
        5       5.6384264            -1.3217E-01
        6       6.2446665            -2.5872E-01
        7       6.6919046            -9.6932E-01
        8       8.2382590            -1.3885E+00
        9       8.6020833            -1.4966E+00

             2            10.5          5.4999E-02                      0

    State    Exc. energy (eV)      Convergence (eV)
        1       3.1885496            -2.2317E-03
        2       3.8790044            -1.4207E-03
        3       4.6096758            -5.6860E-03
        4       5.3701321            -1.8420E-03
        5       5.6328456            -5.5808E-03
        6       6.2267306            -1.7936E-02
        7       6.6757208            -1.6184E-02
        8       7.2923787            -9.4588E-01
        9       7.5153272            -1.0868E+00

             3            10.5          3.9938E-02                      0

    State    Exc. energy (eV)      Convergence (eV)
        1       3.1884837            -6.5937E-05
        2       3.8789046            -9.9825E-05
        3       4.6095400            -1.3579E-04
        4       5.3700820            -5.0075E-05
        5       5.6325682            -2.7737E-04
        6       6.2255813            -1.1493E-03
        7       6.6741893            -1.5315E-03
        8       7.1411130            -1.5127E-01
        9       7.2224613            -2.9287E-01

             4            10.4          1.0763E-02                      0

    State    Exc. energy (eV)      Convergence (eV)
        1       3.1884828            -8.5949E-07
        2       3.8789027            -1.9160E-06
        3       4.6095368            -3.2326E-06
        4       5.3700809            -1.0859E-06
        5       5.6325566            -1.1618E-05
        6       6.2255232            -5.8164E-05
        7       6.6740204            -1.6889E-04
        8       7.1202788            -2.0834E-02
        9       7.1941976            -2.8264E-02

             5            10.4          1.0387E-03                      0

    State    Exc. energy (eV)      Convergence (eV)
        1       3.1884828            -8.4354E-09
        2       3.8789027            -2.0146E-08
        3       4.6095367            -4.9523E-08
        4       5.3700809            -2.6243E-08
        5       5.6325564            -2.5535E-07
        6       6.2255208            -2.3502E-06
        7       6.6740101            -1.0269E-05
        8       7.1162457            -4.0331E-03
        9       7.1854926            -8.7050E-03

             6            10.4          3.1990E-04                      1

    State    Exc. energy (eV)      Convergence (eV)
        1       3.1884828            -8.2973E-11
        2       3.8789027            -2.1689E-10
        3       4.6095367            -8.0165E-10
        4       5.3700809            -3.4787E-10
        5       5.6325564            -4.7693E-09
        6       6.2255208            -4.9581E-08
        7       6.6740098            -2.9835E-07
        8       7.1157257            -5.1996E-04
        9       7.1848198            -6.7280E-04

             7            10.4          2.4725E-05                      5

    State    Exc. energy (eV)      Convergence (eV)
        1       3.1884828            -6.5444E-13
        2       3.8789027            -1.9380E-12
        3       4.6095367            -7.3903E-12
        4       5.3700809            -3.8579E-12
        5       5.6325564            -7.8348E-11
        6       6.2255208            -8.1208E-10
        7       6.6740098            -8.3929E-09
        8       7.1156889            -3.6855E-05
        9       7.1847841            -3.5724E-05

             8            10.5          1.3544E-06                      7

    State    Exc. energy (eV)      Convergence (eV)
        1       3.1884828            -1.1329E-15
        2       3.8789027            -1.0574E-14
        3       4.6095367            -3.3232E-14
        4       5.3700809            -3.9274E-14
        5       5.6325564            -5.8986E-13
        6       6.2255208            -1.0067E-11
        7       6.6740098            -1.4890E-10
        8       7.1156877            -1.1751E-06
        9       7.1847830            -1.1404E-06

             9            10.4          4.3184E-08                      7

    State    Exc. energy (eV)      Convergence (eV)
        1       3.1884828            -1.0951E-14
        2       3.8789027            -1.7371E-14
        3       4.6095367            -1.5105E-14
        4       5.3700809             0.0000E+00
        5       5.6325564            -6.0421E-15
        6       6.2255208            -8.9122E-14
        7       6.6740098            -2.4659E-12
        8       7.1156877            -1.9566E-08
        9       7.1847829            -3.0301E-08

            10            10.4          1.1136E-09                      7

    State    Exc. energy (eV)      Convergence (eV)
        1       3.1884828             2.2658E-14
        2       3.8789027             1.2840E-14
        3       4.6095367             6.0421E-15
        4       5.3700809            -2.2658E-15
        5       5.6325564             6.7974E-15
        6       6.2255208             1.1329E-14
        7       6.6740098            -3.2477E-14
        8       7.1156877            -3.6112E-10
        9       7.1847829            -7.7980E-10

            11            10.4          2.8657E-11                      9
 ------------------------- Restart Davidson iterations -------------------------

    State    Exc. energy (eV)      Convergence (eV)
        1       3.1884828            -1.4350E-14
        2       3.8789027             2.2658E-15
        3       4.6095367            -3.7763E-15
        4       5.3700809             6.7974E-15
        5       5.6325564             6.7974E-15
        6       6.2255208             8.3079E-15
        7       6.6740098             1.0574E-14
        8       7.1156877            -4.6827E-14
        9       7.1847829             1.5105E-15

            12            10.4          1.7208E-15                      9
 
 -------------------------------------------------------------------------------
 -  TDDFPT run converged in 12 iteration(s) 
 -------------------------------------------------------------------------------

 R-TDDFPT states of multiplicity 1
 Transition dipoles calculated using length formulation

         State    Excitation        Transition dipole (a.u.)        Oscillator
         number   energy (eV)       x           y           z     strength (a.u.)
         ------------------------------------------------------------------------
 TDDFPT|      1       3.18848  -2.1475E-01 -1.8100E-02 -1.3538E-01   5.05998E-03
 TDDFPT|      2       3.87890  -1.0275E-01  1.0821E-01  1.5418E-02   2.13874E-03
 TDDFPT|      3       4.60954  -4.3337E-02 -4.5273E-03 -4.0622E-02   4.00765E-04
 TDDFPT|      4       5.37008   3.9137E-02 -5.0018E-02  1.8801E-02   5.77168E-04
 TDDFPT|      5       5.63256  -4.8409E-03 -1.1438E-01  5.4865E-01   4.33479E-02
 TDDFPT|      6       6.22552  -4.9946E-02 -6.2180E-01  5.8966E-01   1.12384E-01
 TDDFPT|      7       6.67401  -1.3512E-01 -2.1896E-01 -4.0147E-01   3.71782E-02
 TDDFPT|      8       7.11569  -3.7231E-02 -2.3240E-01  3.0599E-01   2.59805E-02
 TDDFPT|      9       7.18478  -1.0004E-02 -7.9570E-01 -5.1965E-02   1.11941E-01

 TDDFPT : CheckSum  =  0.628593E+00
 
 -------------------------------------------------------------------------------
 -                            Excitation analysis                              -
 -------------------------------------------------------------------------------
        State             Occupied              Virtual             Excitation
        number             orbital              orbital             amplitude
 -------------------------------------------------------------------------------
             1   3.18848 eV
                                21                   22              -0.991917
                                19                   22               0.078811
                                20                   22              -0.053846
             2   3.87890 eV
                                21                   23              -0.991064
                                19                   23               0.111201
             3   4.60954 eV
                                20                   22               0.984409
                                19                   22               0.131047
                                21                   26               0.055870
             4   5.37008 eV
                                20                   23              -0.982821
                                19                   23              -0.123360
                                19                   22               0.093533
                                18                   22               0.060878
             5   5.63256 eV
                                19                   22               0.773649
                                18                   23              -0.468485
                                19                   23               0.266970
                                18                   22               0.238954
                                21                   24              -0.156469
                                20                   22              -0.092486
                                20                   23               0.059787
                                21                   22               0.053459
                                21                   25               0.051190
             6   6.22552 eV
                                21                   24               0.950272
                                18                   23              -0.198201
                                18                   22               0.103667
                                17                   24               0.091882
                                19                   23              -0.089395
                                19                   22               0.067931
                                19                   24               0.061378
                                21                   26               0.053243
             7   6.67401 eV
                                18                   22               0.652457
                                19                   23               0.613345
                                19                   22              -0.319639
                                17                   22              -0.119242
                                20                   24               0.110952
                                18                   23               0.108139
                                20                   23              -0.070352
                                21                   23               0.055662
                                16                   26               0.054048
             8   7.11569 eV
                                21                   25              -0.959737
                                18                   23              -0.196558
                                20                   24              -0.100859
                                21                   27               0.100258
                                18                   22              -0.056311
             9   7.18478 eV
                                17                   22               0.679836
                                19                   23               0.450483
                                20                   24              -0.435611
                                18                   22              -0.271147
                                19                   24              -0.142530
                                21                   24               0.088099
                                21                   25               0.082359
                                20                   23              -0.060997
                                21                   28               0.053568
 -------------------------------------------------------------------------------
 
 -------------------------------------------------------------------------------
 -                            Natural Orbital analysis                         -
 -------------------------------------------------------------------------------
   STATE NR.      1             3.18848 eV
     Particle-Hole state: 1   Spin:1     Eigenvalue: 0.99539   Sum Eigv: 0.99539
   STATE NR.      2             3.87890 eV
     Particle-Hole state: 1   Spin:1     Eigenvalue: 0.99750   Sum Eigv: 0.99750
   STATE NR.      3             4.60954 eV
     Particle-Hole state: 1   Spin:1     Eigenvalue: 0.99238   Sum Eigv: 0.99238
   STATE NR.      4             5.37008 eV
     Particle-Hole state: 1   Spin:1     Eigenvalue: 0.98541   Sum Eigv: 0.98541
   STATE NR.      5             5.63256 eV
     Particle-Hole state: 1   Spin:1     Eigenvalue: 0.68895   Sum Eigv: 0.68895
     Particle-Hole state: 2   Spin:1     Eigenvalue: 0.27580   Sum Eigv: 0.96475
     Particle-Hole state: 3   Spin:1     Eigenvalue: 0.02971   Sum Eigv: 0.99446
   STATE NR.      6             6.22552 eV
     Particle-Hole state: 1   Spin:1     Eigenvalue: 0.92441   Sum Eigv: 0.92441
     Particle-Hole state: 2   Spin:1     Eigenvalue: 0.06497   Sum Eigv: 0.98939
   STATE NR.      7             6.67401 eV
     Particle-Hole state: 1   Spin:1     Eigenvalue: 0.62595   Sum Eigv: 0.62595
     Particle-Hole state: 2   Spin:1     Eigenvalue: 0.32070   Sum Eigv: 0.94664
     Particle-Hole state: 3   Spin:1     Eigenvalue: 0.02035   Sum Eigv: 0.96700
     Particle-Hole state: 4   Spin:1     Eigenvalue: 0.01157   Sum Eigv: 0.97856
   STATE NR.      8             7.11569 eV
     Particle-Hole state: 1   Spin:1     Eigenvalue: 0.93746   Sum Eigv: 0.93746
     Particle-Hole state: 2   Spin:1     Eigenvalue: 0.04293   Sum Eigv: 0.98039
   STATE NR.      9             7.18478 eV
     Particle-Hole state: 1   Spin:1     Eigenvalue: 0.54159   Sum Eigv: 0.54159
     Particle-Hole state: 2   Spin:1     Eigenvalue: 0.25263   Sum Eigv: 0.79423
     Particle-Hole state: 3   Spin:1     Eigenvalue: 0.18545   Sum Eigv: 0.97967
 -------------------------------------------------------------------------------
 Ground state orbital alignment:         1.000000[MinVal]      1.000000[Average]
 Excitation vector alignment:                                           1.000000
 Calculate properties for state:   1      with excitation energy      3.18848 eV

  HFX_MEM_INFO| Number of cart. primitive DERIV's calculated:        10653340572
  HFX_MEM_INFO| Number of sph. DERIV's calculated:                    2754484536
  HFX_MEM_INFO| Number of sph. DERIV's stored in-core:                         0
  HFX_MEM_INFO| Number of sph. DERIV's calculated on the fly:         2754484536
  HFX_MEM_INFO| Total memory consumption DERIV's RAM [MiB]:                    0
[...]
  max size                          31.744000E+03
  average size                       7.329104E+03
 MPI breakdown and total messages size (bytes):
             size <=      128               89448                        0
       128 < size <=     8192               12372                 83166048
      8192 < size <=    32768               53508               1055248992
     32768 < size <=   131072                   0                        0
    131072 < size <=  4194304                   0                        0
   4194304 < size <= 16777216                   0                        0
  16777216 < size                               0                        0
 -------------------------------------------------------------------------------
 -                                                                             -
 -                      DBCSR MESSAGE PASSING PERFORMANCE                      -
 -                                                                             -
 -------------------------------------------------------------------------------
 ROUTINE             CALLS      AVE VOLUME [Bytes]
 MP_Bcast               28                     12.
 MP_Allreduce         6954                      8.
 MP_Alltoall         26047                   2772.
 MP_ISend            25884                   3457.
 MP_IRecv            25884                   3167.
 -------------------------------------------------------------------------------

 -------------------------------------------------------------------------------
 -                                                                             -
 -                                DBM STATISTICS                               -
 -                                                                             -
 -------------------------------------------------------------------------------
    M  x    N  x    K                                          COUNT     PERCENT
 -------------------------------------------------------------------------------

 -------------------------------------------------------------------------------
 -                                                                             -
 -                                GRID STATISTICS                              -
 -                                                                             -
 -------------------------------------------------------------------------------
 LP    KERNEL             BACKEND                              COUNT     PERCENT
 1     collocate ortho    CPU                                 244321      15.54%
 1     integrate ortho    CPU                                 199381      12.68%
 2     collocate ortho    CPU                                 198968      12.65%
 0     collocate ortho    CPU                                 169708      10.79%
 2     integrate ortho    CPU                                 166432      10.59%
 3     collocate ortho    CPU                                 134178       8.53%
 0     integrate ortho    CPU                                 133980       8.52%
 3     integrate ortho    CPU                                 113546       7.22%
 4     collocate ortho    CPU                                  57684       3.67%
 4     integrate ortho    CPU                                  50676       3.22%
 4     collocate general  CPU                                  20256       1.29%
 5     collocate ortho    CPU                                  17556       1.12%
 5     integrate ortho    CPU                                  16068       1.02%
 4     integrate general  CPU                                  15840       1.01%
 2     collocate general  CPU                                  13504       0.86%
 2     integrate general  CPU                                  10560       0.67%
 6     collocate ortho    CPU                                   4389       0.28%
 6     integrate ortho    CPU                                   4137       0.26%
 5     integrate general  CPU                                    384       0.02%
 3     integrate general  CPU                                    256       0.02%
 7     integrate ortho    CPU                                    168       0.01%
 0     collocate general  CPU                                    160       0.01%
 0     integrate general  CPU                                    160       0.01%
 -------------------------------------------------------------------------------

 MEMORY| Estimated peak process memory [MiB]                                1277

 -------------------------------------------------------------------------------
 ----                             MULTIGRID INFO                            ----
 -------------------------------------------------------------------------------
 count for grid        1:         109542          cutoff [a.u.]          200.00
 count for grid        2:          22505          cutoff [a.u.]           66.67
 count for grid        3:           8627          cutoff [a.u.]           22.22
 count for grid        4:           1858          cutoff [a.u.]            7.41
 total gridlevel count  :         142532

 -------------------------------------------------------------------------------
 -                                                                             -
 -                         MESSAGE PASSING PERFORMANCE                         -
 -                                                                             -
 -------------------------------------------------------------------------------

 ROUTINE             CALLS      AVE VOLUME [Bytes]
 MP_Group                5
 MP_Bcast             4702                 999314.
 MP_Allreduce        14832                 144235.
 MP_Sync              1442
 MP_Alltoall          4192               15015793.
 MP_SendRecv          9465                 233943.
 MP_ISendRecv        16260                 124583.
 MP_Wait             34002
 MP_comm_split          34
 MP_ISend            15287                 822497.
 MP_IRecv            15452                 813387.
 -------------------------------------------------------------------------------


 -------------------------------------------------------------------------------
 -                                                                             -
 -                           R E F E R E N C E S                               -
 -                                                                             -
 -------------------------------------------------------------------------------
 
 CP2K version 2024.1 (Development Version), the CP2K developers group (2024).
 CP2K is freely available from https://www.cp2k.org/ .

 Kuehne,Thomas D.; Iannuzzi,Marcella; Del Ben,Mauro;
 Rybkin,Vladimir V.; Seewald,Patrick; Stein,Frederick; Laino,Teodoro;
 Khaliullin,Rustam Z.; Schuett,Ole; Schiffmann,Florian; Golze,Dorothea;
 Wilhelm,Jan; Chulkov,Sergey; Bani-Hashemian,Mohammad Hossein;
 Weber,Valery; Borstnik,Urban; Taillefumier,Mathieu;
 Jakobovits,Alice Shoshana; Lazzaro,Alfio; Pabst,Hans; Mueller,Tiziano;
 Schade,Robert; Guidon,Manuel; Andermatt,Samuel; Holmberg,Nico;
 Schenter,Gregory K.; Hehn,Anna; Bussy,Augustin; Belleflamme,Fabian;
 Tabacchi,Gloria; Gloess,Andreas; Lass,Michael; Bethune,Iain;
 Mundy,Christopher J.; Plessl,Christian; Watkins,Matt;
 VandeVondele,Joost; Krack,Matthias; Hutter,Juerg. 
 The Journal of Chemical Physics, 152 (19), (2020). 
 CP2K: An electronic structure and molecular dynamics software package -
 Quickstep: Efficient and accurate electronic structure calculations.
 https://doi.org/10.1063/5.0007045

 Goerigk, Lars; Hansen, Andreas; Bauer, Christoph; Ehrlich, Stephan;
 Najibi, Asim; Grimme, Stefan. , 19 (48), (2017). 
 A look at the density functional theory zoo with the advanced GMTKN55 database
 for general main group thermochemistry, kinetics and noncovalent interactions.
 https://doi.org/10.1039/C7CP04913G

 Schuett, Ole; Messmer, Peter; Hutter, Juerg; VandeVondele, Joost. 
 Electronic Structure Calculations on Graphics Processing Units, John
 Wiley & Sons, Ltd, 173-190 (2016). 
 GPU-Accelerated Sparse Matrix-Matrix Multiplication for
 Linear Scaling Density Functional Theory.
 https://doi.org/10.1002/9781118670712.ch8

 Heinecke, A; Henry, G; Hutchinson, M; Pabst, H. 
 Proceedings of Intl. Supercomputing Conference, 981-991 (2016). 
 LIBXSMM: Accelerating Small Matrix Multiplications
 by Runtime Code Generation.
 https://doi.org/10.1109/SC.2016.83

 Borstnik, U; VandeVondele, J; Weber, V; Hutter, J. 
 PARALLEL COMPUTING, 40 (5-6), 47-58 (2014). 
 Sparse matrix multiplication: The distributed block-compressed sparse
 row library.
 https://doi.org/10.1016/j.parco.2014.03.012

 Hutter, J; Iannuzzi, M; Schiffmann, F; VandeVondele, J. 
 WIREs Comput Mol Sci., 4 (1), 15-25 (2014). 
 CP2K: atomistic simulations of condensed matter systems.
 https://doi.org/10.1002/wcms.1159

 Grimme, S; Ehrlich, S; Goerigk, L. 
 JOURNAL OF COMPUTATIONAL CHEMISTRY, 32, 1456 (2011). 
 Effect of the damping function in dispersion corrected density functional theory.
 https://doi.org/10.1002/jcc.21759

 Grimme, S; Antony, J; Ehrlich, S; Krieg, H. 
 JOURNAL OF CHEMICAL PHYSICS, 132 (15), 154104 (2010). 
 A consistent and accurate ab initio parametrization of density
 functional dispersion correction (DFT-D) for the 94 elements H-Pu.
 https://doi.org/10.1063/1.3382344

 Guidon, M; Hutter, J; VandeVondele, J. 
 JOURNAL OF CHEMICAL THEORY AND COMPUTATION, 5 (11), 3010-3021 (2009). 
 Robust Periodic Hartree-Fock Exchange for Large-Scale Simulations Using
 Gaussian Basis Sets.
 https://doi.org/10.1021/ct900494g

 Guidon, M; Schiffmann, F; Hutter, J; VandeVondele, J. 
 JOURNAL OF CHEMICAL PHYSICS, 128 (21), 214104 (2008). 
 Ab initio molecular dynamics using hybrid density functionals.
 https://doi.org/10.1063/1.2931945

 VandeVondele, J; Hutter, J. 
 JOURNAL OF CHEMICAL PHYSICS, 127 (11), 114105 (2007). 
 Gaussian basis sets for accurate calculations on molecular systems in
 gas and condensed phases.
 https://doi.org/10.1063/1.2770708

 Frigo, M; Johnson, SG. 
 PROCEEDINGS OF THE IEEE, 93 (2), 216-231 (2005). 
 The design and implementation of FFTW3.
 https://doi.org/10.1109/JPROC.2004.840301

 Iannuzzi, M; Chassaing, T; Wallman, T; Hutter, J. 
 CHIMIA, 59 (7-8), 499-503 (2005). 
 Ground and excited state density functional calculations with the
 Gaussian and augmented-plane-wave method.
 https://doi.org/10.2533/000942905777676164

 VandeVondele, J; Hutter, J. 
 JOURNAL OF CHEMICAL PHYSICS, 118 (10), 4365-4369 (2003). 
 An efficient orbital transformation method for electronic structure
 calculations.
 https://doi.org/10.1063/1.1543154

 Martin,Richard L.. 
 The Journal of Chemical Physics, 118 (11), 4775-4777 (2003). 
 Natural transition orbitals.
 https://doi.org/10.1063/1.1558471

 Lippert, G; Hutter, J; Parrinello, M. 
 THEORETICAL CHEMISTRY ACCOUNTS, 103 (2), 124-140 (1999). 
 The Gaussian and augmented-plane-wave density functional method for ab
 initio molecular dynamics simulations.
 https://doi.org/10.1007/s002140050523

 Krack, M; Parrinello, M. 
 PHYSICAL CHEMISTRY CHEMICAL PHYSICS, 2 (10), 2105-2112 (2000). 
 All-electron ab-initio molecular dynamics.
 https://doi.org/10.1039/b001167n

 Martyna, GJ; Tuckerman, ME. 
 JOURNAL OF CHEMICAL PHYSICS, 110 (6), 2810-2821 (1999). 
 A reciprocal space based method for treating long range interactions in
 ab initio and force-field-based calculations in clusters.
 https://doi.org/10.1063/1.477923

 BECKE, AD. PHYSICAL REVIEW A, 38 (6), 3098-3100 (1988). 
 DENSITY-FUNCTIONAL EXCHANGE-ENERGY APPROXIMATION WITH CORRECT
 ASYMPTOTIC-BEHAVIOR.
 https://doi.org/10.1103/PhysRevA.38.3098

 LEE, CT; YANG, WT; PARR, RG. 
 PHYSICAL REVIEW B, 37 (2), 785-789 (1988). 
 DEVELOPMENT OF THE COLLE-SALVETTI CORRELATION-ENERGY FORMULA INTO A
 FUNCTIONAL OF THE ELECTRON-DENSITY.
 https://doi.org/10.1103/PhysRevB.37.785

 VOSKO, SH; WILK, L; NUSAIR, M. 
 CANADIAN JOURNAL OF PHYSICS, 58 (8), 1200-1211 (1980). 
 ACCURATE SPIN-DEPENDENT ELECTRON LIQUID CORRELATION ENERGIES FOR LOCAL
 SPIN-DENSITY CALCULATIONS - A CRITICAL ANALYSIS.
 https://doi.org/10.1139/p80-159


 -------------------------------------------------------------------------------
 -                                                                             -
 -                                T I M I N G                                  -
 -                                                                             -
 -------------------------------------------------------------------------------
 SUBROUTINE                       CALLS  ASD         SELF TIME        TOTAL TIME
                                MAXIMUM       AVERAGE  MAXIMUM  AVERAGE  MAXIMUM
 CP2K                                 1  1.0    0.012    0.015  274.342  274.343
 qs_forces                            1  2.0    0.001    0.001  273.346  273.347
 qs_energies                          1  3.0    0.000    0.000  181.753  181.754
 qs_energies_properties               1  4.0    0.000    0.000  160.395  160.395
 tddfpt                               1  5.0    0.000    0.000  160.394  160.395
 tddfpt_energies                      1  6.0    0.000    0.000  126.117  126.117
 tddfpt_davidson_solver               2  7.0    0.002    0.003  125.373  125.374
 tddfpt_compute_Aop_evects           12  8.0    0.000    0.000  124.975  124.976
 fhxc_kernel                         12  9.0    0.004    0.004   79.713   79.713
 excited_state_energy                 2  3.5    0.001    0.001   78.363   78.363
 fft_wrap_pw1pw2                   3790 12.2    0.041    0.048   72.840   76.818
 fft_wrap_pw1pw2_200               2643 13.5    2.213    2.311   70.566   74.889
 integrate_four_center              276 10.6    0.058    0.063   62.076   62.085
 integrate_four_center_main         276 11.6    0.024    0.033   57.422   58.776
 integrate_four_center_bin        26220 12.6   57.398   58.756   57.398   58.756
 fft3d_ps                          3790 14.2   30.074   32.078   53.376   57.186
 response_equation                    1  4.0    0.000    0.000   56.832   56.832
 linres_solver                        1  5.0    0.001    0.003   56.798   56.798
 apply_op                            40  6.0    0.001    0.001   56.726   56.727
 derivatives_four_center              4  8.5    0.005    0.007   49.333   49.993
 derivatives_four_center_main         4  9.5    0.000    0.001   49.245   49.907
 derivatives_four_center_bin        336 10.5   47.082   48.517   47.082   48.517
 tddfpt_apply_hfx                    12  9.0    0.002    0.002   45.145   45.145
 tddft_hfx_matrix                   216 10.0    0.005    0.005   44.697   44.698
 xc_pw_derive                      1380 12.4    0.011    0.013   40.949   42.914
 prepare_gapw_den                   215  8.9    0.005    0.006   34.018   34.206
 tddfpt_forces_main                   1  6.0    0.000    0.000   34.197   34.197
 apply_op_2_dft                      39  7.0    0.003    0.003   33.260   33.316
 tddfpt_forces                        1  7.0    0.000    0.000   32.872   32.872
 tddfpt_force_direct                  1  8.0    0.000    0.000   32.264   32.265
 tddfpt_kernel_force                  1  9.0    0.000    0.000   32.253   32.253
 fhxc_force                           1 10.0    0.001    0.001   32.253   32.253
 rebuild_ks_matrix                   17  6.8    0.000    0.000   32.222   32.222
 qs_ks_build_kohn_sham_matrix        17  7.8    0.002    0.003   32.222   32.222
 xc_pw_divergence                   209 12.3    0.005    0.007   25.257   27.220
 tddfpt_apply_xc_analytic           108 10.0    1.274    1.413   25.093   25.189
 calculate_rho_elec                 209  9.6    0.344    0.366   23.215   23.221
 qs_rho_update_rho_low              204  8.7    0.002    0.002   23.166   23.168
 response_force                       1  4.0    0.006    0.009   21.530   21.530
 scf_env_do_scf                       1  4.0    0.000    0.000   21.147   21.147
 hfx_ks_matrix                       17  8.8    0.001    0.001   20.608   20.608
 calculate_rho0_atom                633  9.9   18.947   20.106   18.947   20.106
 xc_calc_2nd_deriv_analytical       777 11.2    1.638    1.817   19.423   19.648
 qs_ks_update_qs_env                 18  6.0    0.000    0.000   19.052   19.052
 density_rs2pw                      209 10.6    0.008    0.011   18.081   19.021
 qs_fxc_analytic                     40  8.0    0.002    0.002   18.505   18.588
 xc_rho_set_and_dset_create         102 12.2    1.841    2.127   15.468   18.554
 mp_alltoall_z22v                  3790 16.2   12.732   17.916   12.732   17.916
 integrate_v_rspace                 173  9.4    0.003    0.004   16.722   17.428
 yz_to_x                           1930 15.3    4.347    4.693   12.716   16.682
 qs_vxc_create                       60 11.8    0.001    0.001   16.646   16.656
 xc_vxc_pw_create                    60 12.8    0.172    0.183   16.645   16.655
 scf_env_do_scf_inner_loop           16  5.0    0.000    0.001   15.336   15.336
 tddfpt_apply_coulomb               108 10.0    0.002    0.002   13.394   14.875
 xc_calc_2nd_deriv                   41  8.9    0.449    0.524   11.814   13.543
 qs_ks_update_qs_env_forces           1  3.0    0.000    0.000   13.171   13.171
 x_to_yz                           1860 15.0    6.164    6.858   10.526   12.384
 potential_pw2rs                    173 10.4    0.017    0.018   11.199   11.907
 qs_fgxc_gdiff                        1 11.0    0.000    0.000   11.876   11.877
 qs_fxc_fdiff                         7 12.0    0.001    0.001   11.846   11.848
 transfer_rs2pw                    1048 11.5    0.011    0.013    9.025    9.949
 put_rho0_on_grid                   211  9.9    0.385    0.435    9.717    9.944
 xc_prep_2nd_deriv                   42  8.9    0.000    0.000    7.305    8.773
 pw_gather_p                       1930 14.3    8.321    8.698    8.321    8.698
 apply_hfx                           39  7.0    0.001    0.001    8.181    8.188
 hfx_matrix                          39  8.0    0.001    0.001    8.178    8.184
 transfer_rs2pw_200                 421 12.2    3.356    3.423    7.163    8.154
 integrate_vhg0_rspace              169 10.0    1.841    1.980    7.877    7.889
 pw_poisson_solve                   170 10.0    0.003    0.003    6.048    7.631
 transfer_pw2rs                     862 11.3    0.008    0.009    7.577    7.608
 mp_sum_d                          2124  9.0    4.574    6.884    4.574    6.884
 xc_functional_eval                3224 12.0    0.004    0.007    3.585    6.603
 mp_waitany                       15280 13.2    5.410    6.374    5.410    6.374
 pw_scatter_p                      1860 14.0    6.161    6.322    6.161    6.322
 grid_collocate_task_list           209 10.6    4.355    6.238    4.355    6.238
 transfer_pw2rs_200                 343 12.2    2.912    2.945    5.858    5.898
 init_scf_loop                        1  5.0    0.000    0.000    5.811    5.811
 grid_integrate_task_list           173 10.4    3.273    5.507    3.273    5.507
 calculate_xc_2nd_deriv_atom        150  9.4    0.277    0.765    1.964    5.502
 -------------------------------------------------------------------------------

 The number of warnings for this run is : 0
 
 -------------------------------------------------------------------------------
  **** **** ******  **  PROGRAM ENDED AT                 2025-01-05 08:57:05.154
 ***** ** ***  *** **   PROGRAM RAN ON                               nesh-clk603
 **    ****   ******    PROGRAM RAN BY                                  suphc356
 ***** **    ** ** **   PROGRAM PROCESS ID                               3798720
  **** **  *******  **  PROGRAM STOPPED IN /gxfs_work/cau/suphc356/NEWTONX_proje
                                           ct/Pyrazin_molecule/CP2K_GAPW_B3LYP_d
                                           ef2_TZVP/MOLDYN_BA_again/TRAJECTORIES
                                           /TRAJ15/TEMP
