 DBCSR| CPU Multiplication driver                                           XSMM (U)
 DBCSR| Multrec recursion limit                                              512 (U)
 DBCSR| Multiplication stack size                                           1000 (D)
 DBCSR| Maximum elements for images                                    UNLIMITED (U)
 DBCSR| Multiplicative factor virtual images                                   1 (U)
 DBCSR| Use multiplication densification                                       T (D)
 DBCSR| Multiplication size stacks                                             3 (U)
 DBCSR| Use memory pool for CPU allocation                                     F (U)
 DBCSR| Number of 3D layers                                               SINGLE (U)
 DBCSR| Use MPI memory allocation                                              F (U)
 DBCSR| Use RMA algorithm                                                      F (U)
 DBCSR| Use Communication thread                                               T (U)
 DBCSR| Communication thread load                                             87 (D)
 DBCSR| MPI: My process id                                                     0
 DBCSR| MPI: Number of processes                                              16
 DBCSR| OMP: Current number of threads                                         1
 DBCSR| OMP: Max number of threads                                             1
 DBCSR| Split modifier for TAS multiplication algorithm                  1.0E+00 (U)


  **** **** ******  **  PROGRAM STARTED AT               2025-01-06 15:28:34.051
 ***** ** ***  *** **   PROGRAM STARTED ON                           nesh-clk495
 **    ****   ******    PROGRAM STARTED BY                              suphc356
 ***** **    ** ** **   PROGRAM PROCESS ID                               3987474
  **** **  *******  **  PROGRAM STARTED IN /gxfs_work/cau/suphc356/NEWTONX_proje
                                           ct/Pyrazin_molecule/CP2K_GAPW_B3LYP_d
                                           ef2_TZVP/MOLDYN_BA_again/TRAJECTORIES
                                           /TRAJ76/TEMP

 CP2K| version string:                 CP2K version 2024.1 (Development Version)
 CP2K| source code revision number:                                  git:990486a
 CP2K| cp2kflags: omp libint fftw3 libxc libgrpp parallel mpi_f08 scalapack cosm
 CP2K|            a xsmm spglib mkl
 CP2K| is freely available from                            https://www.cp2k.org/
 CP2K| Program compiled at                          Mon Mar 11 08:48:45 CET 2024
 CP2K| Program compiled on                                           nesh-login2
 CP2K| Program compiled for                                                local
 CP2K| Data directory path                 /gxfs_work/cau/suphc356/cp2k_gcc/data
 CP2K| Input file name                                                  cp2k.inp

 GLOBAL| Force Environment number                                              1
 GLOBAL| Basis set file name                                     EMSL_BASIS_SETS
 GLOBAL| Potential file name                                      ALL_POTENTIALS
 GLOBAL| MM Potential file name                                     MM_POTENTIAL
 GLOBAL| Coordinate file name                                      __STD_INPUT__
 GLOBAL| Method name                                                        CP2K
 GLOBAL| Project name                                               testsuite_ad
 GLOBAL| Run type                                                   ENERGY_FORCE
 GLOBAL| FFT library                                                       FFTW3
 GLOBAL| Diagonalization library                                       ScaLAPACK
 GLOBAL| DGEMM library                                                      BLAS
 GLOBAL| Orthonormality check for eigenvectors                          DISABLED
 GLOBAL| Matrix multiplication library                                     COSMA
 GLOBAL| All-to-all communication in single precision                          F
 GLOBAL| FFTs using library dependent lengths                                  F
 GLOBAL| Grid backend                                                       AUTO
 GLOBAL| Global print level                                               MEDIUM
 GLOBAL| MPI I/O enabled                                                       T
 GLOBAL| Total number of message passing processes                            16
 GLOBAL| Number of threads for this process                                    1
 GLOBAL| This output is from process                                           0
 GLOBAL| Stack size for threads created by OpenMP (OMP_STACKSIZE)           256M
 GLOBAL| CPU model name                Intel(R) Xeon(R) Gold 6226R CPU @ 2.90GHz
 GLOBAL| CPUID                                                              1003
 GLOBAL| Compiled for CPUID                                                    0

 *** HINT in environment.F:920 :: The compiler target flags (generic) used ***
 *** to build this binary cannot exploit all extensions of this CPU model  ***
 *** (x86_avx512). Consider compiler target flags as part of FCFLAGS and   ***
 *** CFLAGS (ARCH file).                                                   ***


 MEMORY| system memory details [Kb]
 MEMORY|                        rank 0           min           max       average
 MEMORY| MemTotal            196683224     196683224     196683224     196683224
 MEMORY| MemFree             171671576     171671576     171671576     171671576
 MEMORY| Buffers                928016        928016        928016        928016
 MEMORY| Cached                 910600        910600        910600        910600
 MEMORY| Slab                  8806340       8806340       8806340       8806340
 MEMORY| SReclaimable           230152        230152        230152        230152
 MEMORY| MemLikelyFree       173740344     173740344     173740344     173740344


 *** Fundamental physical constants (SI units) ***

 *** Literature: B. J. Mohr and B. N. Taylor,
 ***             CODATA recommended values of the fundamental physical
 ***             constants: 2006, Web Version 5.1
 ***             http://physics.nist.gov/constants

 Speed of light in vacuum [m/s]                             2.99792458000000E+08
 Magnetic constant or permeability of vacuum [N/A**2]       1.25663706143592E-06
 Electric constant or permittivity of vacuum [F/m]          8.85418781762039E-12
 Planck constant (h) [J*s]                                  6.62606896000000E-34
 Planck constant (h-bar) [J*s]                              1.05457162825177E-34
 Elementary charge [C]                                      1.60217648700000E-19
 Electron mass [kg]                                         9.10938215000000E-31
 Electron g factor [ ]                                     -2.00231930436220E+00
 Proton mass [kg]                                           1.67262163700000E-27
 Fine-structure constant                                    7.29735253760000E-03
 Rydberg constant [1/m]                                     1.09737315685270E+07
 Avogadro constant [1/mol]                                  6.02214179000000E+23
 Boltzmann constant [J/K]                                   1.38065040000000E-23
 Atomic mass unit [kg]                                      1.66053878200000E-27
 Bohr radius [m]                                            5.29177208590000E-11

 *** Conversion factors ***

 [u] -> [a.u.]                                              1.82288848426455E+03
 [Angstrom] -> [Bohr] = [a.u.]                              1.88972613288564E+00
 [a.u.] = [Bohr] -> [Angstrom]                              5.29177208590000E-01
 [a.u.] -> [s]                                              2.41888432650478E-17
 [a.u.] -> [fs]                                             2.41888432650478E-02
 [a.u.] -> [J]                                              4.35974393937059E-18
 [a.u.] -> [N]                                              8.23872205491840E-08
 [a.u.] -> [K]                                              3.15774647902944E+05
 [a.u.] -> [kJ/mol]                                         2.62549961709828E+03
 [a.u.] -> [kcal/mol]                                       6.27509468713739E+02
 [a.u.] -> [Pa]                                             2.94210107994716E+13
 [a.u.] -> [bar]                                            2.94210107994716E+08
 [a.u.] -> [atm]                                            2.90362800883016E+08
 [a.u.] -> [eV]                                             2.72113838565563E+01
 [a.u.] -> [Hz]                                             6.57968392072181E+15
 [a.u.] -> [1/cm] (wave numbers)                            2.19474631370540E+05
 [a.u./Bohr**2] -> [1/cm]                                   5.14048714338585E+03
 

 CELL_TOP| Volume [angstrom^3]:                                      2744.000000
 CELL_TOP| Vector a [angstrom    14.000     0.000     0.000   |a| =    14.000000
 CELL_TOP| Vector b [angstrom     0.000    14.000     0.000   |b| =    14.000000
 CELL_TOP| Vector c [angstrom     0.000     0.000    14.000   |c| =    14.000000
 CELL_TOP| Angle (b,c), alpha [degree]:                                90.000000
 CELL_TOP| Angle (a,c), beta  [degree]:                                90.000000
 CELL_TOP| Angle (a,b), gamma [degree]:                                90.000000
 CELL_TOP| Numerically orthorhombic:                                         YES
 CELL_TOP| Periodicity                                                      NONE

 CELL| Volume [angstrom^3]:                                          2744.000000
 CELL| Vector a [angstrom]:      14.000     0.000     0.000   |a| =    14.000000
 CELL| Vector b [angstrom]:       0.000    14.000     0.000   |b| =    14.000000
 CELL| Vector c [angstrom]:       0.000     0.000    14.000   |c| =    14.000000
 CELL| Angle (b,c), alpha [degree]:                                    90.000000
 CELL| Angle (a,c), beta  [degree]:                                    90.000000
 CELL| Angle (a,b), gamma [degree]:                                    90.000000
 CELL| Numerically orthorhombic:                                             YES
 CELL| Periodicity                                                          NONE

 CELL_REF| Volume [angstrom^3]:                                      2744.000000
 CELL_REF| Vector a [angstrom    14.000     0.000     0.000   |a| =    14.000000
 CELL_REF| Vector b [angstrom     0.000    14.000     0.000   |b| =    14.000000
 CELL_REF| Vector c [angstrom     0.000     0.000    14.000   |c| =    14.000000
 CELL_REF| Angle (b,c), alpha [degree]:                                90.000000
 CELL_REF| Angle (a,c), beta  [degree]:                                90.000000
 CELL_REF| Angle (a,b), gamma [degree]:                                90.000000
 CELL_REF| Numerically orthorhombic:                                         YES
 CELL_REF| Periodicity                                                      NONE

 *******************************************************************************
 *******************************************************************************
 **                                                                           **
 **     #####                         ##              ##                      **
 **    ##   ##            ##          ##              ##                      **
 **   ##     ##                       ##            ######                    **
 **   ##     ##  ##   ##  ##   #####  ##  ##   ####   ##    #####    #####    **
 **   ##     ##  ##   ##  ##  ##      ## ##   ##      ##   ##   ##  ##   ##   **
 **   ##  ## ##  ##   ##  ##  ##      ####     ###    ##   ######   ######    **
 **    ##  ###   ##   ##  ##  ##      ## ##      ##   ##   ##       ##        **
 **     #######   #####   ##   #####  ##  ##  ####    ##    #####   ##        **
 **           ##                                                    ##        **
 **                                                                           **
 **                                                ... make the atoms dance   **
 **                                                                           **
 **            Copyright (C) by CP2K developers group (2000-2024)             **
 **                      J. Chem. Phys. 152, 194103 (2020)                    **
 **                                                                           **
 *******************************************************************************

 DFT| Spin restricted Kohn-Sham (RKS) calculation                            RKS
 DFT| Multiplicity                                                             1
 DFT| Number of spin states                                                    1
 DFT| Charge                                                                   0
 DFT| Self-interaction correction (SIC)                                       NO
 DFT| Cutoffs: density                                              1.000000E-10
 DFT|          gradient                                             1.000000E-10
 DFT|          tau                                                  1.000000E-10
 DFT|          cutoff_smoothing_range                               0.000000E+00
 DFT| XC density smoothing                                                  NONE
 DFT| XC derivatives                                                          PW

 FUNCTIONAL| BECKE88:
 FUNCTIONAL| A. Becke, Phys. Rev. A 38, 3098 (1988) {LDA version}               
 FUNCTIONAL| LYP:
 FUNCTIONAL| C. Lee, W. Yang, R.G. Parr, Phys. Rev. B, 37, 785 (1988) {LDA versi
 FUNCTIONAL| on}                                                                
 FUNCTIONAL| VWN:
 FUNCTIONAL| S. H. Vosko, L. Wilk and M. Nusair, Can. J. Phys. 58, 1200 (1980) {
 FUNCTIONAL| LDA version}                                                       
 FUNCTIONAL| XALPHA:
 FUNCTIONAL| Dirac/Slater local exchange; parameter=  0.666 {LDA}               

 vdW POTENTIAL|                                                   Pair Potential
 vdW POTENTIAL|          DFT-D3 (Version 3.1)
 vdW POTENTIAL|          Potential Form: S. Grimme et al, JCP 132: 154104 (2010)
 vdW POTENTIAL|          Zero Damping
 vdW POTENTIAL|          Cutoff Radius [Bohr]:                             37.79
 vdW POTENTIAL|          s6 Scaling Factor:                               1.0000
 vdW POTENTIAL|          sr6 Scaling Factor:                              1.2610
 vdW POTENTIAL|          s8 Scaling Factor:                               1.7030
 vdW POTENTIAL|          Cutoff for CN calculation:                   0.1000E-05

 QS| Method:                                                                GAPW
 QS| Density plane wave grid type                        NON-SPHERICAL FULLSPACE
 QS| Number of grid levels:                                                    4
 QS| Density cutoff [a.u.]:                                                200.0
 QS| Multi grid cutoff [a.u.]: 1) grid level                               200.0
 QS|                           2) grid level                                66.7
 QS|                           3) grid level                                22.2
 QS|                           4) grid level                                 7.4
 QS| Grid level progression factor:                                          3.0
 QS| Relative density cutoff [a.u.]:                                        30.0
 QS| Interaction thresholds: eps_pgf_orb:                                1.0E-07
 QS|                         eps_filter_matrix:                          0.0E+00
 QS|                         eps_core_charge:                            1.0E-16
 QS|                         eps_rho_gspace:                             1.0E-14
 QS|                         eps_rho_rspace:                             1.0E-14
 QS|                         eps_gvg_rspace:                             1.0E-07
 QS|                         eps_ppl:                                    1.0E-02
 QS|                         eps_ppnl:                                   1.0E-09
 QS| GAPW|      One center basis extended with primitives (small:s)
 QS| GAPW|                   eps_fit:                                    1.0E-04
 QS| GAPW|                   eps_iso:                                    1.0E-12
 QS| GAPW|                   eps_svd:                                    1.0E-08
 QS| GAPW|                   eps_cpc:                                    1.0E-14
 QS| GAPW|   atom-r-grid: quadrature:                                     GC_LOG
 QS| GAPW|      atom-s-grid:  max l :                                          6
 QS| GAPW|      max_l_rho0 :                                                   4


 ATOMIC KIND INFORMATION

  1. Atomic kind: n                                     Number of atoms:       2

     Orbital Basis Set                                        Ahlrichs-def2-TZVP

       Number of orbital shell sets:                                          11
       Number of orbital shells:                                              11
       Number of primitive Cartesian functions:                               20
       Number of Cartesian basis functions:                                   36
       Number of spherical basis functions:                                   31
       Norm type:                                                              2

       Normalised Cartesian orbitals:

                        Set   Shell   Orbital            Exponent    Coefficient

                          1       1    1s            19730.800647       0.695604
                                                      2957.895874       1.298610
                                                       673.221336       2.219088
                                                       190.682495       3.463661
                                                        62.295442       4.696756
                                                        22.654161       4.952251

                          2       1    1s                8.979148       2.388068
                                                         3.686300       0.733788

                          3       1    1s                0.846601       0.629027

                          4       1    1s                0.336471       0.314863

                          5       1    1s                0.136477       0.160031

                          6       1    1px              49.200381       2.126481
                                                        11.346791       2.327937
                                                         3.427397       2.048573
                                                         1.178553       1.260732
                          6       1    1py              49.200381       2.126481
                                                        11.346791       2.327937
                                                         3.427397       2.048573
                                                         1.178553       1.260732
                          6       1    1pz              49.200381       2.126481
                                                        11.346791       2.327937
                                                         3.427397       2.048573
                                                         1.178553       1.260732

                          7       1    1px               0.416422       0.476823
                          7       1    1py               0.416422       0.476823
                          7       1    1pz               0.416422       0.476823

                          8       1    1px               0.142608       0.124917
                          8       1    1py               0.142608       0.124917
                          8       1    1pz               0.142608       0.124917

                          9       1    1dx2              1.654000       3.970513
                          9       1    1dxy              1.654000       6.877130
                          9       1    1dxz              1.654000       6.877130
                          9       1    1dy2              1.654000       3.970513
                          9       1    1dyz              1.654000       6.877130
                          9       1    1dz2              1.654000       3.970513

                         10       1    1dx2              0.469000       0.437484
                         10       1    1dxy              0.469000       0.757744
                         10       1    1dxz              0.469000       0.757744
                         10       1    1dy2              0.469000       0.437484
                         10       1    1dyz              0.469000       0.757744
                         10       1    1dz2              0.469000       0.437484

                         11       1    1fx3              1.093000       1.798249
                         11       1    1fx2y             1.093000       4.021007
                         11       1    1fx2z             1.093000       4.021007
                         11       1    1fxy2             1.093000       4.021007
                         11       1    1fxyz             1.093000       6.964588
                         11       1    1fxz2             1.093000       4.021007
                         11       1    1fy3              1.093000       1.798249
                         11       1    1fy2z             1.093000       4.021007
                         11       1    1fyz2             1.093000       4.021007
                         11       1    1fz3              1.093000       1.798249

       Atomic covalent radius [Angstrom]:                                  0.750

       Atomic van der Waals radius [Angstrom]:                             1.550

     The atoms of this atomic kind are PAW atoms (GAPW):
       Hard Gaussian function radius:                                      1.400
       Rho0 radius:                                                        1.400
       Maximum GTO radius used for PAW projector construction:            24.566

     GAPW Soft Basis Set                                 Ahlrichs-def2-TZVP_soft

       Number of orbital shell sets:                                          11
       Number of orbital shells:                                              11
       Number of primitive Cartesian functions:                               11
       Number of Cartesian basis functions:                                   36
       Number of spherical basis functions:                                   31
       Norm type:                                                              2

       Normalised Cartesian orbitals:

                        Set   Shell   Orbital            Exponent    Coefficient

                          1       1    1s         

                          2       1    1s                3.686300       0.733788

                          3       1    1s                0.846601       0.629027

                          4       1    1s                0.336471       0.314863

                          5       1    1s                0.136477       0.160031

                          6       1    1px               3.427397       2.048573
                                                         1.178553       1.260732
                          6       1    1py               3.427397       2.048573
                                                         1.178553       1.260732
                          6       1    1pz               3.427397       2.048573
                                                         1.178553       1.260732

                          7       1    1px               0.416422       0.476823
                          7       1    1py               0.416422       0.476823
                          7       1    1pz               0.416422       0.476823

                          8       1    1px               0.142608       0.124917
                          8       1    1py               0.142608       0.124917
                          8       1    1pz               0.142608       0.124917

                          9       1    1dx2              1.654000       3.970513
                          9       1    1dxy              1.654000       6.877130
                          9       1    1dxz              1.654000       6.877130
                          9       1    1dy2              1.654000       3.970513
                          9       1    1dyz              1.654000       6.877130
                          9       1    1dz2              1.654000       3.970513

                         10       1    1dx2              0.469000       0.437484
                         10       1    1dxy              0.469000       0.757744
                         10       1    1dxz              0.469000       0.757744
                         10       1    1dy2              0.469000       0.437484
                         10       1    1dyz              0.469000       0.757744
                         10       1    1dz2              0.469000       0.437484

                         11       1    1fx3              1.093000       1.798249
                         11       1    1fx2y             1.093000       4.021007
                         11       1    1fx2z             1.093000       4.021007
                         11       1    1fxy2             1.093000       4.021007
                         11       1    1fxyz             1.093000       6.964588
                         11       1    1fxz2             1.093000       4.021007
                         11       1    1fy3              1.093000       1.798249
                         11       1    1fy2z             1.093000       4.021007
                         11       1    1fyz2             1.093000       4.021007
                         11       1    1fz3              1.093000       1.798249

     AE Potential information for                                            ALL

       Description:                                       All-electron potential
                                          Krack, Parrinello, PCCP 2, 2105 (2000)

       Gaussian exponent of the core charge distribution:               5.979100
       Electronic configuration (s p d ...):                           4   3   0

  2. Atomic kind: c                                     Number of atoms:       4

     Orbital Basis Set                                        Ahlrichs-def2-TZVP

       Number of orbital shell sets:                                          11
       Number of orbital shells:                                              11
       Number of primitive Cartesian functions:                               20
       Number of Cartesian basis functions:                                   36
       Number of spherical basis functions:                                   31
       Norm type:                                                              2

       Normalised Cartesian orbitals:

                        Set   Shell   Orbital            Exponent    Coefficient

                          1       1    1s            13575.349682       0.543591
                                                      2035.233368       1.014554
                                                       463.225624       1.731573
                                                       131.200196       2.691038
                                                        42.853016       3.604455
                                                        15.584186       3.702556

                          2       1    1s                6.206714       1.838354
                                                         2.576490       0.544758

                          3       1    1s                0.576963       0.471815

                          4       1    1s                0.229728       0.236494

                          5       1    1s                0.095164       0.122114

                          6       1    1px              34.697232       1.359665
                                                         7.958262       1.451259
                                                         2.378083       1.270923
                                                         0.814332       0.802572
                          6       1    1py              34.697232       1.359665
                                                         7.958262       1.451259
                                                         2.378083       1.270923
                                                         0.814332       0.802572
                          6       1    1pz              34.697232       1.359665
                                                         7.958262       1.451259
                                                         2.378083       1.270923
                                                         0.814332       0.802572

                          7       1    1px               0.288875       0.301876
                          7       1    1py               0.288875       0.301876
                          7       1    1pz               0.288875       0.301876

                          8       1    1px               0.100568       0.080727
                          8       1    1py               0.100568       0.080727
                          8       1    1pz               0.100568       0.080727

                          9       1    1dx2              1.097000       1.935401
                          9       1    1dxy              1.097000       3.352214
                          9       1    1dxz              1.097000       3.352214
                          9       1    1dy2              1.097000       1.935401
                          9       1    1dyz              1.097000       3.352214
                          9       1    1dz2              1.097000       1.935401

                         10       1    1dx2              0.318000       0.221644
                         10       1    1dxy              0.318000       0.383899
                         10       1    1dxz              0.318000       0.383899
                         10       1    1dy2              0.318000       0.221644
                         10       1    1dyz              0.318000       0.383899
                         10       1    1dz2              0.318000       0.221644

                         11       1    1fx3              0.761000       0.796288
                         11       1    1fx2y             0.761000       1.780553
                         11       1    1fx2z             0.761000       1.780553
                         11       1    1fxy2             0.761000       1.780553
                         11       1    1fxyz             0.761000       3.084008
                         11       1    1fxz2             0.761000       1.780553
                         11       1    1fy3              0.761000       0.796288
                         11       1    1fy2z             0.761000       1.780553
                         11       1    1fyz2             0.761000       1.780553
                         11       1    1fz3              0.761000       0.796288

       Atomic covalent radius [Angstrom]:                                  0.770

       Atomic van der Waals radius [Angstrom]:                             1.700

     The atoms of this atomic kind are PAW atoms (GAPW):
       Hard Gaussian function radius:                                      1.520
       Rho0 radius:                                                        1.520
       Maximum GTO radius used for PAW projector construction:            24.566

     GAPW Soft Basis Set                                 Ahlrichs-def2-TZVP_soft

       Number of orbital shell sets:                                          11
       Number of orbital shells:                                              11
       Number of primitive Cartesian functions:                               11
       Number of Cartesian basis functions:                                   36
       Number of spherical basis functions:                                   31
       Norm type:                                                              2

       Normalised Cartesian orbitals:

                        Set   Shell   Orbital            Exponent    Coefficient

                          1       1    1s         

                          2       1    1s                2.576490       0.544758

                          3       1    1s                0.576963       0.471815

                          4       1    1s                0.229728       0.236494

                          5       1    1s                0.095164       0.122114

                          6       1    1px               2.378083       1.270923
                                                         0.814332       0.802572
                          6       1    1py               2.378083       1.270923
                                                         0.814332       0.802572
                          6       1    1pz               2.378083       1.270923
                                                         0.814332       0.802572

                          7       1    1px               0.288875       0.301876
                          7       1    1py               0.288875       0.301876
                          7       1    1pz               0.288875       0.301876

                          8       1    1px               0.100568       0.080727
                          8       1    1py               0.100568       0.080727
                          8       1    1pz               0.100568       0.080727

                          9       1    1dx2              1.097000       1.935401
                          9       1    1dxy              1.097000       3.352214
                          9       1    1dxz              1.097000       3.352214
                          9       1    1dy2              1.097000       1.935401
                          9       1    1dyz              1.097000       3.352214
                          9       1    1dz2              1.097000       1.935401

                         10       1    1dx2              0.318000       0.221644
                         10       1    1dxy              0.318000       0.383899
                         10       1    1dxz              0.318000       0.383899
                         10       1    1dy2              0.318000       0.221644
                         10       1    1dyz              0.318000       0.383899
                         10       1    1dz2              0.318000       0.221644

                         11       1    1fx3              0.761000       0.796288
                         11       1    1fx2y             0.761000       1.780553
                         11       1    1fx2z             0.761000       1.780553
                         11       1    1fxy2             0.761000       1.780553
                         11       1    1fxyz             0.761000       3.084008
                         11       1    1fxz2             0.761000       1.780553
                         11       1    1fy3              0.761000       0.796288
                         11       1    1fy2z             0.761000       1.780553
                         11       1    1fyz2             0.761000       1.780553
                         11       1    1fz3              0.761000       0.796288

     AE Potential information for                                            ALL

       Description:                                       All-electron potential
                                          Krack, Parrinello, PCCP 2, 2105 (2000)

       Gaussian exponent of the core charge distribution:               4.109048
       Electronic configuration (s p d ...):                           4   2   0

  3. Atomic kind: h                                     Number of atoms:       4

     Orbital Basis Set                                        Ahlrichs-def2-TZVP

       Number of orbital shell sets:                                           4
       Number of orbital shells:                                               4
       Number of primitive Cartesian functions:                                6
       Number of Cartesian basis functions:                                    6
       Number of spherical basis functions:                                    6
       Norm type:                                                              2

       Normalised Cartesian orbitals:

                        Set   Shell   Orbital            Exponent    Coefficient

                          1       1    1s               34.061341       0.255630
                                                         5.123575       0.461360
                                                         1.164663       0.681121

                          2       1    1s                0.327230       0.308355

                          3       1    1s                0.103072       0.129648

                          4       1    1px               0.800000       1.078456
                          4       1    1py               0.800000       1.078456
                          4       1    1pz               0.800000       1.078456

       Atomic covalent radius [Angstrom]:                                  0.320

       Atomic van der Waals radius [Angstrom]:                             1.090

     The atoms of this atomic kind are PAW atoms (GAPW):
       Hard Gaussian function radius:                                      1.000
       Rho0 radius:                                                        1.000
       Maximum GTO radius used for PAW projector construction:            24.566

     GAPW Soft Basis Set                                 Ahlrichs-def2-TZVP_soft

       Number of orbital shell sets:                                           4
       Number of orbital shells:                                               4
       Number of primitive Cartesian functions:                                5
       Number of Cartesian basis functions:                                    6
       Number of spherical basis functions:                                    6
       Norm type:                                                              2

       Normalised Cartesian orbitals:

                        Set   Shell   Orbital            Exponent    Coefficient

                          1       1    1s                5.123575       0.461360
                                                         1.164663       0.681121

                          2       1    1s                0.327230       0.308355

                          3       1    1s                0.103072       0.129648

                          4       1    1px               0.800000       1.078456
                          4       1    1py               0.800000       1.078456
                          4       1    1pz               0.800000       1.078456

     AE Potential information for                                            ALL

       Description:                                       All-electron potential
                                          Krack, Parrinello, PCCP 2, 2105 (2000)

       Gaussian exponent of the core charge distribution:              12.500000
       Electronic configuration (s p d ...):                           1   0   0


 MOLECULE KIND INFORMATION


 All atoms are their own molecule, skipping detailed information


 TOTAL NUMBERS AND MAXIMUM NUMBERS

  Total number of            - Atomic kinds:                                   3
                             - Atoms:                                         10
                             - Shell sets:                                    82
                             - Shells:                                        82
                             - Primitive Cartesian functions:                144
                             - Cartesian basis functions:                    240
                             - Spherical basis functions:                    210

  Maximum angular momentum of the orbital basis functions:                     3


 MODULE QUICKSTEP: ATOMIC COORDINATES IN ANGSTROM

   Atom Kind Element         X             Y             Z       Z(eff)     Mass
      1    1 n     7      7.328123      8.177036      7.426936   7.0000  14.0067
      2    1 n     7      7.355957      5.795131      6.312456   7.0000  14.0067
      3    2 c     6      7.168609      7.105961      8.294927   6.0000  12.0107
      4    2 c     6      7.223700      5.659027      7.632540   6.0000  12.0107
      5    2 c     6      7.418559      8.265800      6.099586   6.0000  12.0107
      6    2 c     6      7.220704      6.988183      5.595098   6.0000  12.0107
      7    3 h     1      7.170330      7.237286      9.395094   1.0000   1.0079
      8    3 h     1      6.410205      4.968286      8.264084   1.0000   1.0079
      9    3 h     1      7.589795      9.031714      5.420231   1.0000   1.0079
     10    3 h     1      7.190362      6.753634      4.604906   1.0000   1.0079



 SCF PARAMETERS         Density guess:                                   RESTART
                        --------------------------------------------------------
                        max_scf:                                              50
                        max_scf_history:                                       0
                        max_diis:                                              4
                        --------------------------------------------------------
                        eps_scf:                                        1.00E-08
                        eps_scf_history:                                0.00E+00
                        eps_diis:                                       1.00E-01
                        eps_eigval:                                     1.00E-05
                        --------------------------------------------------------
                        level_shift [a.u.]:                             0.000000
                        --------------------------------------------------------
                        Outer loop SCF in use 
                        No variables optimised in outer loop
                        eps_scf                                         1.00E-08
                        max_scf                                              900
                        No outer loop optimization
                        step_size                                       5.00E-01

 PW_GRID| Information for grid number                                          1
 PW_GRID| Grid distributed over                                    16 processors
 PW_GRID| Real space group dimensions                                    16    1
 PW_GRID| the grid is blocked:                                                NO
 PW_GRID| Cutoff [a.u.]                                                    400.0
 PW_GRID| spherical cutoff:                                                   NO
 PW_GRID|   Bounds   1           -120     119                Points:         240
 PW_GRID|   Bounds   2           -120     119                Points:         240
 PW_GRID|   Bounds   3           -120     119                Points:         240
 PW_GRID| Volume element (a.u.^3)  0.1340E-02     Volume (a.u.^3)     18517.4301
 PW_GRID| Grid span                                                    FULLSPACE
 PW_GRID|   Distribution                         Average         Max         Min
 PW_GRID|   G-Vectors                           864000.0      864000      864000
 PW_GRID|   G-Rays                                3600.0        3600        3600
 PW_GRID|   Real Space Points                   864000.0      864000      864000

 PW_GRID| Information for grid number                                          2
 PW_GRID| Number of the reference grid                                         1
 PW_GRID| Grid distributed over                                    16 processors
 PW_GRID| Real space group dimensions                                    16    1
 PW_GRID| the grid is blocked:                                                NO
 PW_GRID| Cutoff [a.u.]                                                    200.0
 PW_GRID| spherical cutoff:                                                   NO
 PW_GRID|   Bounds   1            -90      89                Points:         180
 PW_GRID|   Bounds   2            -90      89                Points:         180
 PW_GRID|   Bounds   3            -90      89                Points:         180
 PW_GRID| Volume element (a.u.^3)  0.3175E-02     Volume (a.u.^3)     18517.4301
 PW_GRID| Grid span                                                    FULLSPACE
 PW_GRID|   Distribution                         Average         Max         Min
 PW_GRID|   G-Vectors                           364500.0      364680      364320
 PW_GRID|   G-Rays                                2025.0        2026        2024
 PW_GRID|   Real Space Points                   364500.0      388800      356400

 PW_GRID| Information for grid number                                          3
 PW_GRID| Number of the reference grid                                         2
 PW_GRID| Grid distributed over                                    16 processors
 PW_GRID| Real space group dimensions                                    16    1
 PW_GRID| the grid is blocked:                                                NO
 PW_GRID| Cutoff [a.u.]                                                     66.7
 PW_GRID| spherical cutoff:                                                   NO
 PW_GRID|   Bounds   1            -50      49                Points:         100
 PW_GRID|   Bounds   2            -50      49                Points:         100
 PW_GRID|   Bounds   3            -50      49                Points:         100
 PW_GRID| Volume element (a.u.^3)  0.1852E-01     Volume (a.u.^3)     18517.4301
 PW_GRID| Grid span                                                    FULLSPACE
 PW_GRID|   Distribution                         Average         Max         Min
 PW_GRID|   G-Vectors                            62500.0       62600       62400
 PW_GRID|   G-Rays                                 625.0         626         624
 PW_GRID|   Real Space Points                    62500.0       70000       60000

 PW_GRID| Information for grid number                                          4
 PW_GRID| Number of the reference grid                                         2
 PW_GRID| Grid distributed over                                    16 processors
 PW_GRID| Real space group dimensions                                    16    1
 PW_GRID| the grid is blocked:                                                NO
 PW_GRID| Cutoff [a.u.]                                                     22.2
 PW_GRID| spherical cutoff:                                                   NO
 PW_GRID|   Bounds   1            -30      29                Points:          60
 PW_GRID|   Bounds   2            -30      29                Points:          60
 PW_GRID|   Bounds   3            -30      29                Points:          60
 PW_GRID| Volume element (a.u.^3)  0.8573E-01     Volume (a.u.^3)     18517.4301
 PW_GRID| Grid span                                                    FULLSPACE
 PW_GRID|   Distribution                         Average         Max         Min
 PW_GRID|   G-Vectors                            13500.0       13560       13440
 PW_GRID|   G-Rays                                 225.0         226         224
 PW_GRID|   Real Space Points                    13500.0       14400       10800

 PW_GRID| Information for grid number                                          5
 PW_GRID| Number of the reference grid                                         2
 PW_GRID| Grid distributed over                                    16 processors
 PW_GRID| Real space group dimensions                                    16    1
 PW_GRID| the grid is blocked:                                                NO
 PW_GRID| Cutoff [a.u.]                                                      7.4
 PW_GRID| spherical cutoff:                                                   NO
 PW_GRID|   Bounds   1            -18      17                Points:          36
 PW_GRID|   Bounds   2            -18      17                Points:          36
 PW_GRID|   Bounds   3            -18      17                Points:          36
 PW_GRID| Volume element (a.u.^3)  0.3969         Volume (a.u.^3)     18517.4301
 PW_GRID| Grid span                                                    FULLSPACE
 PW_GRID|   Distribution                         Average         Max         Min
 PW_GRID|   G-Vectors                             2916.0        2952        2880
 PW_GRID|   G-Rays                                  81.0          82          80
 PW_GRID|   Real Space Points                     2916.0        3888        2592

 POISSON| Solver                                          Martyna-Tuckerman (MT)
 POISSON| MT| Alpha                                                        7.000
 POISSON| MT| Relative cutoff                                                2.0
 POISSON| Periodicity                                                       NONE

 RS_GRID| Information for grid number                                          2
 RS_GRID|   Bounds   1            -90      89                Points:         180
 RS_GRID|   Bounds   2            -90      89                Points:         180
 RS_GRID|   Bounds   3            -90      89                Points:         180
 RS_GRID| Real space distribution over                                  4 groups
 RS_GRID| Real space distribution along direction                              2
 RS_GRID| Border size                                                         31
 RS_GRID| Real space distribution over                                  4 groups
 RS_GRID| Real space distribution along direction                              3
 RS_GRID| Border size                                                         31
 RS_GRID|   Distribution                         Average         Max         Min
 RS_GRID|   Planes                                 107.0         107         107
 RS_GRID|   Distribution                         Average         Max         Min
 RS_GRID|   Planes                                 107.0         107         107

 RS_GRID| Information for grid number                                          3
 RS_GRID|   Bounds   1            -50      49                Points:         100
 RS_GRID|   Bounds   2            -50      49                Points:         100
 RS_GRID|   Bounds   3            -50      49                Points:         100
 RS_GRID| Real space fully replicated
 RS_GRID| Group size                                                           1

 RS_GRID| Information for grid number                                          4
 RS_GRID|   Bounds   1            -30      29                Points:          60
 RS_GRID|   Bounds   2            -30      29                Points:          60
 RS_GRID|   Bounds   3            -30      29                Points:          60
 RS_GRID| Real space fully replicated
 RS_GRID| Group size                                                           1

 RS_GRID| Information for grid number                                          5
 RS_GRID|   Bounds   1            -18      17                Points:          36
 RS_GRID|   Bounds   2            -18      17                Points:          36
 RS_GRID|   Bounds   3            -18      17                Points:          36
 RS_GRID| Real space fully replicated
 RS_GRID| Group size                                                           1

  HFX_INFO| Replica ID:                                                        1
  HFX_INFO| FRACTION:                                               0.2000000000
  HFX_INFO| Interaction Potential:                                       COULOMB
  HFX_INFO| EPS_SCHWARZ:                                                 1.0E-10
  HFX_INFO| EPS_SCHWARZ_FORCES                                           1.0E-08
  HFX_INFO| EPS_STORAGE_SCALING:                                         1.0E+00
  HFX_INFO| NBINS:                                                            64
  HFX_INFO| BLOCK_SIZE:                                                        1
  HFX_INFO| Number of periodic shells considered:                           NONE
  HFX_INFO| Number of periodic cells considered:                            NONE


 Number of electrons:                                                         42
 Number of occupied orbitals:                                                 21
 Number of molecular orbitals:                                                21

 Number of orbital functions:                                                210
 Number of independent orbital functions:                                    210

 Extrapolation method: initial_guess


 SCF WAVEFUNCTION OPTIMIZATION

  ----------------------------------- OT ---------------------------------------
  Minimizer      : DIIS                : direct inversion
                                         in the iterative subspace
                                         using   7 DIIS vectors
                                         safer DIIS on
  Preconditioner : FULL_ALL            : diagonalization, state selective
  Precond_solver : DEFAULT
  stepsize       :    0.15000000                  energy_gap     :    0.08000000
  eps_taylor     :   0.10000E-15                  max_taylor     :             4
  ----------------------------------- OT ---------------------------------------

  Step     Update method      Time    Convergence         Total energy    Change
  ------------------------------------------------------------------------------

  HFX_MEM_INFO| Est. max. program size before HFX [MiB]:                     640
  HFX_MEM_INFO| Number of cart. primitive ERI's calculated:           1697598711
  HFX_MEM_INFO| Number of sph. ERI's calculated:                       314981700
  HFX_MEM_INFO| Number of sph. ERI's stored in-core:                   314981700
  HFX_MEM_INFO| Number of sph. ERI's stored on disk:                           0
  HFX_MEM_INFO| Number of sph. ERI's calculated on the fly:                    0
  HFX_MEM_INFO| Total memory consumption ERI's RAM [MiB]:                    928
  HFX_MEM_INFO| Whereof max-vals [MiB]:                                        5
  HFX_MEM_INFO| Total compression factor ERI's RAM:                         2.59
  HFX_MEM_INFO| Total memory consumption ERI's disk [MiB]:                     0
  HFX_MEM_INFO| Total compression factor ERI's disk:                        0.00
  HFX_MEM_INFO| Size of density/Fock matrix [MiB]:                             0
  HFX_MEM_INFO| Size of buffers [MiB]:                                         0
  HFX_MEM_INFO| Est. max. program size after HFX  [MiB]:                     696

     1 OT DIIS     0.15E+00    5.7     0.01386583      -264.0284563585 -2.64E+02
     2 OT DIIS     0.15E+00    1.0     0.00640531      -264.1163373319 -8.79E-02
     3 OT DIIS     0.15E+00    1.0     0.00418017      -264.1347695029 -1.84E-02
     4 OT DIIS     0.15E+00    1.0     0.00073433      -264.1384863842 -3.72E-03
     5 OT DIIS     0.15E+00    1.0     0.00024871      -264.1386023299 -1.16E-04
     6 OT DIIS     0.15E+00    1.0     0.00010409      -264.1386205179 -1.82E-05
     7 OT DIIS     0.15E+00    1.0     0.00003408      -264.1386246073 -4.09E-06
     8 OT DIIS     0.15E+00    1.0     0.00001663      -264.1386249179 -3.11E-07
     9 OT DIIS     0.15E+00    1.0     0.00000524      -264.1386249943 -7.63E-08
    10 OT DIIS     0.15E+00    1.0     0.00000202      -264.1386250093 -1.50E-08
    11 OT DIIS     0.15E+00    1.0     0.00000077      -264.1386250111 -1.79E-09
    12 OT DIIS     0.15E+00    1.0     0.00000034      -264.1386250114 -3.33E-10
    13 OT DIIS     0.15E+00    1.0     0.00000023      -264.1386250115 -5.15E-11
    14 OT DIIS     0.15E+00    1.0     0.00000007      -264.1386250115 -6.59E-12
    15 OT DIIS     0.15E+00    1.0     0.00000003      -264.1386250115 -6.65E-12
    16 OT DIIS     0.15E+00    1.0     0.00000001      -264.1386250115 -5.00E-12
    17 OT DIIS     0.15E+00    1.0     6.3735E-09      -264.1386250115  1.14E-12

  *** SCF run converged in    17 steps ***


  Electronic density on regular grids:        -30.6518426164       11.3481573836
  Core density on regular grids:               42.0000000000       -0.0000000000
  Hard and soft densities (Lebedev):          -94.1857107881      -82.8375534183
  Total Rho_soft + Rho1_hard - Rho1_soft      -41.9999999862
  Total charge density (r-space):               0.0000000138
  Total Rho_soft + Rho0_soft (g-space):        -0.0000000118

  Overlap energy of the core charge distribution:               0.00001174332047
  Self energy of the core charge distribution:               -217.69203579805162
  Core Hamiltonian energy:                                    -42.26608987326746
  Hartree energy:                                             110.15595981125516
  Exchange-correlation energy:                                -11.11161487389647
  Hartree-Fock Exchange energy:                                -7.02551895776524
  Dispersion energy:                                           -0.00406915124132

  GAPW| Exc from hard and soft atomic rho1:                   -18.54363335897065
  GAPW| local Eh = 1 center integrals:                        -77.65163455286269

  Total energy:                                              -264.13862501147980

  outer SCF iter =    1 RMS gradient =   0.64E-08 energy =       -264.1386250115
  outer SCF loop converged in   1 iterations or   17 steps


 !-----------------------------------------------------------------------------!
                     Mulliken Population Analysis

 #  Atom  Element  Kind  Atomic population                           Net charge
       1     n        1          7.225242                             -0.225242
       2     n        1          7.228187                             -0.228187
       3     c        2          6.043098                             -0.043098
       4     c        2          6.030474                             -0.030474
       5     c        2          6.001188                             -0.001188
       6     c        2          6.013943                             -0.013943
       7     h        3          0.863360                              0.136640
       8     h        3          0.856883                              0.143117
       9     h        3          0.858937                              0.141063
      10     h        3          0.878687                              0.121313
 # Total charge                             42.000000                  0.000000

 !-----------------------------------------------------------------------------!

 !-----------------------------------------------------------------------------!
                           Hirshfeld Charges

  #Atom  Element  Kind  Ref Charge     Population                    Net charge
      1       n      1       7.000          7.315                        -0.315
      2       n      1       7.000          7.308                        -0.308
      3       c      2       6.000          6.361                        -0.361
      4       c      2       6.000          6.345                        -0.345
      5       c      2       6.000          6.306                        -0.306
      6       c      2       6.000          6.337                        -0.337
      7       h      3       1.000          0.504                         0.496
      8       h      3       1.000          0.493                         0.507
      9       h      3       1.000          0.501                         0.499
     10       h      3       1.000          0.518                         0.482

  Total Charge                                                            0.012
 !-----------------------------------------------------------------------------!

 *******************************************************************************
 **                                                                           **
 **         ######## #######   #######   ######## #######  ########           **
 **            ##    ##     ## ##     ## ##       ##   ##     ##              **
 **            ##    ##     ## ##     ## ######   #######     ##              **
 **            ##    ##     ## ##     ## ##       ##          ##              **
 **            ##    #######   #######   ##       ##          ##              **
 **                                                                           **
 *******************************************************************************
 KERNEL|                                                                    FULL
 FUNCTIONAL| BECKE88:
 FUNCTIONAL| A. Becke, Phys. Rev. A 38, 3098 (1988) {LDA version}               
 FUNCTIONAL| LYP:
 FUNCTIONAL| C. Lee, W. Yang, R.G. Parr, Phys. Rev. B, 37, 785 (1988) {LDA versi
 FUNCTIONAL| on}                                                                
 FUNCTIONAL| VWN:
 FUNCTIONAL| S. H. Vosko, L. Wilk and M. Nusair, Can. J. Phys. 58, 1200 (1980) {
 FUNCTIONAL| LDA version}                                                       
 FUNCTIONAL| XALPHA:
 FUNCTIONAL| Dirac/Slater local exchange; parameter=  0.666 {LDA}               
 KERNEL|                                                          Exact Exchange
 KERNEL| Spin symmetry of excitations                                    Singlet
 TDDFPT| Number of states calculated                                           9
 TDDFPT| Number of Davidson iterations                                       100
 TDDFPT| Davidson iteration convergence                                0.367E-09
 TDDFPT| Max. number of Krylov space vectors                                5000
 TDDFPT| Molecular Orbitals:        Spin       AOs       Occ      Virt     Total
 TDDFPT|                               1       210        21       189       210
 
 -------------------------------------------------------------------------------
 -                            TDDFPT Initial Guess                             -
 -------------------------------------------------------------------------------
          State         Occupied      ->      Virtual          Excitation
          number         orbital              orbital          energy (eV)
 -------------------------------------------------------------------------------
             1               21                   22              3.73534
             2               21                   23              4.25011
             3               20                   22              5.15040
             4               19                   22              5.49069
             5               20                   23              5.66517
             6               19                   23              6.00547
             7               18                   22              6.74839
             8               21                   24              6.98674
             9               18                   23              7.26316

      Number of active states:                                       3969
 -------------------------------------------------------------------------------
 
 -------------------------------------------------------------------------------
 -                      TDDFPT WAVEFUNCTION OPTIMIZATION                       -
 -------------------------------------------------------------------------------

          Step            Time         Convergence           Conv. states
 -------------------------------------------------------------------------------

    State    Exc. energy (eV)      Convergence (eV)
        1       2.5045752            -1.2308E+00
        2       2.9458458            -1.3043E+00
        3       4.2148226            -9.3557E-01
        4       4.6706513            -8.2004E-01
        5       4.9334673            -7.3170E-01
        6       6.0536065             4.8139E-02
        7       6.7556634             7.2729E-03
        8       8.7122729             1.7255E+00
        9       9.2008675             1.9377E+00

             1            10.4          7.1209E-02                      0

    State    Exc. energy (eV)      Convergence (eV)
        1       2.4507527            -5.3822E-02
        2       2.8908051            -5.5041E-02
        3       4.1524110            -6.2412E-02
        4       4.6003602            -7.0291E-02
        5       4.7541799            -1.7929E-01
        6       5.6570095            -3.9660E-01
        7       5.9544627            -8.0120E-01
        8       7.3246554            -1.3876E+00
        9       7.6329074            -1.5680E+00

             2            10.4          5.7621E-02                      0

    State    Exc. energy (eV)      Convergence (eV)
        1       2.4477734            -2.9793E-03
        2       2.8881136            -2.6914E-03
        3       4.1485949            -3.8161E-03
        4       4.5969702            -3.3900E-03
        5       4.7480012            -6.1787E-03
        6       5.6283222            -2.8687E-02
        7       5.9276877            -2.6775E-02
        8       6.7289579            -5.9570E-01
        9       6.9895943            -6.4331E-01

             3            10.4          2.3641E-02                      0

    State    Exc. energy (eV)      Convergence (eV)
        1       2.4476703            -1.0307E-04
        2       2.8880519            -6.1775E-05
        3       4.1484603            -1.3462E-04
        4       4.5968571            -1.1309E-04
        5       4.7476726            -3.2856E-04
        6       5.6266440            -1.6782E-03
        7       5.9237206            -3.9670E-03
        8       6.6583468            -7.0611E-02
        9       6.8376886            -1.5191E-01

             4            10.4          5.5824E-03                      0

    State    Exc. energy (eV)      Convergence (eV)
        1       2.4476689            -1.3931E-06
        2       2.8880508            -1.0242E-06
        3       4.1484572            -3.0742E-06
        4       4.5968545            -2.5703E-06
        5       4.7476584            -1.4182E-05
        6       5.6265956            -4.8420E-05
        7       5.9234886            -2.3199E-04
        8       6.6438851            -1.4462E-02
        9       6.7917185            -4.5970E-02

             5            10.4          1.6894E-03                      0

    State    Exc. energy (eV)      Convergence (eV)
        1       2.4476689            -9.5182E-09
        2       2.8880508            -1.0761E-08
        3       4.1484571            -3.3819E-08
        4       4.5968545            -4.0348E-08
        5       4.7476582            -2.3199E-07
        6       5.6265943            -1.2788E-06
        7       5.9234818            -6.8042E-06
        8       6.6421308            -1.7543E-03
        9       6.7859618            -5.7567E-03

             6            10.4          2.1155E-04                      1

    State    Exc. energy (eV)      Convergence (eV)
        1       2.4476689            -6.2679E-11
        2       2.8880508            -9.0836E-11
        3       4.1484571            -3.3795E-10
        4       4.5968545            -6.3979E-10
        5       4.7476582            -3.0146E-09
        6       5.6265943            -2.6476E-08
        7       5.9234817            -1.2502E-07
        8       6.6420358            -9.4996E-05
        9       6.7855413            -4.2052E-04

             7            10.4          1.5454E-05                      5

    State    Exc. energy (eV)      Convergence (eV)
        1       2.4476689            -4.7922E-13
        2       2.8880508            -9.5692E-13
        3       4.1484571            -3.1789E-12
        4       4.5968545            -9.9174E-12
        5       4.7476582            -3.7320E-11
        6       5.6265943            -4.8088E-10
        7       5.9234817            -2.4511E-09
        8       6.6420318            -4.0450E-06
        9       6.7855220            -1.9335E-05

             8            10.4          7.1056E-07                      7

    State    Exc. energy (eV)      Convergence (eV)
        1       2.4476689            -1.0196E-14
        2       2.8880508            -1.2084E-14
        3       4.1484571            -3.7008E-14
        4       4.5968545            -9.3653E-14
        5       4.7476582            -3.2401E-13
        6       5.6265943            -5.7499E-12
        7       5.9234817            -3.1813E-11
        8       6.6420317            -8.7238E-08
        9       6.7855214            -5.8178E-07

             9            10.4          2.1380E-08                      7

    State    Exc. energy (eV)      Convergence (eV)
        1       2.4476689            -1.8882E-15
        2       2.8880508             5.2869E-15
        3       4.1484571             2.3413E-14
        4       4.5968545             6.0421E-15
        5       4.7476582             9.0632E-15
        6       5.6265943            -5.3624E-14
        7       5.9234817            -4.0633E-13
        8       6.6420317            -2.4746E-09
        9       6.7855214            -2.4146E-08

            10            10.4          8.8733E-10                      8

    State    Exc. energy (eV)      Convergence (eV)
        1       2.4476689             1.1329E-15
        2       2.8880508            -5.2869E-15
        3       4.1484571            -9.0632E-15
        4       4.5968545            -7.5527E-15
        5       4.7476582            -7.5527E-15
        6       5.6265943             6.0421E-15
        7       5.9234817            -3.7763E-15
        8       6.6420317            -5.6164E-11
        9       6.7855214            -7.0225E-10

            11            10.4          2.5807E-11                      9
 ------------------------- Restart Davidson iterations -------------------------

    State    Exc. energy (eV)      Convergence (eV)
        1       2.4476689            -5.2869E-15
        2       2.8880508             4.1540E-15
        3       4.1484571            -1.5105E-14
        4       4.5968545             0.0000E+00
        5       4.7476582             2.2658E-15
        6       5.6265943            -7.5527E-16
        7       5.9234817             9.8185E-15
        8       6.6420317             3.7008E-14
        9       6.7855214             4.3050E-14

            12            10.4          1.5821E-15                      9
 
 -------------------------------------------------------------------------------
 -  TDDFPT run converged in 12 iteration(s) 
 -------------------------------------------------------------------------------

 R-TDDFPT states of multiplicity 1
 Transition dipoles calculated using length formulation

         State    Excitation        Transition dipole (a.u.)        Oscillator
         number   energy (eV)       x           y           z     strength (a.u.)
         ------------------------------------------------------------------------
 TDDFPT|      1       2.44767  -1.9554E-01  3.9015E-02  1.4183E-02   2.39611E-03
 TDDFPT|      2       2.88805   1.4443E-01  8.8496E-02  1.2724E-01   3.17567E-03
 TDDFPT|      3       4.14846   7.3096E-02  1.2574E-01 -2.9581E-02   2.23894E-03
 TDDFPT|      4       4.59685  -1.0493E-02 -2.6883E-01  7.7189E-02   8.82257E-03
 TDDFPT|      5       4.74766  -6.4246E-03 -6.7375E-01  3.7907E-01   6.95182E-02
 TDDFPT|      6       5.62659  -4.8473E-02  7.3803E-01  5.5334E-01   1.17615E-01
 TDDFPT|      7       5.92348   1.0825E-01  1.4684E-01 -2.9273E-01   1.72651E-02
 TDDFPT|      8       6.64203   3.3595E-02 -2.8770E-02  5.3910E-01   4.76115E-02
 TDDFPT|      9       6.78552  -1.9857E-02 -3.9382E-02 -3.6922E-01   2.29861E-02

 TDDFPT : CheckSum  =  0.559893E+00
 
 -------------------------------------------------------------------------------
 -                            Excitation analysis                              -
 -------------------------------------------------------------------------------
        State             Occupied              Virtual             Excitation
        number             orbital              orbital             amplitude
 -------------------------------------------------------------------------------
             1   2.44767 eV
                                21                   22               0.990360
                                20                   22               0.082884
                                21                   23              -0.074768
             2   2.88805 eV
                                21                   23              -0.988136
                                21                   22              -0.077451
                                20                   23              -0.072032
                                20                   22               0.060176
             3   4.14846 eV
                                19                   22               0.972447
                                20                   22              -0.179211
                                19                   23               0.057934
                                18                   23               0.052538
                                20                   23              -0.050736
             4   4.59685 eV
                                19                   23               0.917291
                                20                   22               0.348412
                                18                   22               0.097541
                                18                   23              -0.094502
                                21                   24               0.090208
             5   4.74766 eV
                                20                   22               0.711755
                                20                   23               0.359891
                                19                   23              -0.357423
                                18                   23              -0.335876
                                18                   22               0.261707
                                19                   22               0.181951
             6   5.62659 eV
                                20                   23               0.781387
                                20                   22              -0.433382
                                18                   22               0.317924
                                21                   24               0.131085
                                19                   23               0.082570
                                21                   23              -0.074882
                                19                   22              -0.070585
                                21                   36              -0.065484
                                21                   27              -0.062443
                                17                   23               0.057684
             7   5.92348 eV
                                21                   24               0.949986
                                21                   26              -0.187394
                                21                   25              -0.105634
                                18                   22              -0.105007
                                19                   23              -0.102715
                                20                   23              -0.075899
                                21                   27              -0.066480
             8   6.64203 eV
                                21                   26               0.659155
                                18                   22              -0.602013
                                20                   23               0.242511
                                19                   24              -0.128288
                                20                   24              -0.116933
                                21                   24               0.114164
                                21                   25               0.110115
                                17                   23               0.103608
                                15                   22               0.089554
                                21                   27               0.086528
                                19                   22               0.082224
                                20                   22               0.070973
                                21                   28              -0.050207
                                16                   23               0.050042
             9   6.78552 eV
                                21                   25               0.899559
                                18                   22               0.261611
                                21                   26               0.172815
                                21                   24               0.157175
                                20                   23              -0.141628
                                18                   23              -0.107192
                                16                   22              -0.084971
 -------------------------------------------------------------------------------
 
 -------------------------------------------------------------------------------
 -                            Natural Orbital analysis                         -
 -------------------------------------------------------------------------------
   STATE NR.      1             2.44767 eV
     Particle-Hole state: 1   Spin:1     Eigenvalue: 0.99733   Sum Eigv: 0.99733
   STATE NR.      2             2.88805 eV
     Particle-Hole state: 1   Spin:1     Eigenvalue: 0.99079   Sum Eigv: 0.99079
   STATE NR.      3             4.14846 eV
     Particle-Hole state: 1   Spin:1     Eigenvalue: 0.98783   Sum Eigv: 0.98783
   STATE NR.      4             4.59685 eV
     Particle-Hole state: 1   Spin:1     Eigenvalue: 0.85473   Sum Eigv: 0.85473
     Particle-Hole state: 2   Spin:1     Eigenvalue: 0.13237   Sum Eigv: 0.98711
   STATE NR.      5             4.74766 eV
     Particle-Hole state: 1   Spin:1     Eigenvalue: 0.65222   Sum Eigv: 0.65222
     Particle-Hole state: 2   Spin:1     Eigenvalue: 0.33606   Sum Eigv: 0.98827
   STATE NR.      6             5.62659 eV
     Particle-Hole state: 1   Spin:1     Eigenvalue: 0.85385   Sum Eigv: 0.85385
     Particle-Hole state: 2   Spin:1     Eigenvalue: 0.07634   Sum Eigv: 0.93020
     Particle-Hole state: 3   Spin:1     Eigenvalue: 0.04766   Sum Eigv: 0.97786
   STATE NR.      7             5.92348 eV
     Particle-Hole state: 1   Spin:1     Eigenvalue: 0.95875   Sum Eigv: 0.95875
     Particle-Hole state: 2   Spin:1     Eigenvalue: 0.02272   Sum Eigv: 0.98147
   STATE NR.      8             6.64203 eV
     Particle-Hole state: 1   Spin:1     Eigenvalue: 0.49837   Sum Eigv: 0.49837
     Particle-Hole state: 2   Spin:1     Eigenvalue: 0.38113   Sum Eigv: 0.87950
     Particle-Hole state: 3   Spin:1     Eigenvalue: 0.09347   Sum Eigv: 0.97297
     Particle-Hole state: 4   Spin:1     Eigenvalue: 0.01708   Sum Eigv: 0.99005
   STATE NR.      9             6.78552 eV
     Particle-Hole state: 1   Spin:1     Eigenvalue: 0.87277   Sum Eigv: 0.87277
[...]
 # MPI messages exchanged                  151392
 MPI messages size (bytes):
  total size                         1.166410E+09
  min size                           0.000000E+00
  max size                          31.744000E+03
  average size                       7.704566E+03
 MPI breakdown and total messages size (bytes):
             size <=      128               84219                        0
       128 < size <=     8192               12243                 84063672
      8192 < size <=    32768               54930               1082346048
     32768 < size <=   131072                   0                        0
    131072 < size <=  4194304                   0                        0
   4194304 < size <= 16777216                   0                        0
  16777216 < size                               0                        0
 -------------------------------------------------------------------------------
 -                                                                             -
 -                      DBCSR MESSAGE PASSING PERFORMANCE                      -
 -                                                                             -
 -------------------------------------------------------------------------------
 ROUTINE             CALLS      AVE VOLUME [Bytes]
 MP_Bcast               28                     12.
 MP_Allreduce         6735                      8.
 MP_Alltoall         26688                   2772.
 MP_ISend            25228                   3616.
 MP_IRecv            25228                   3332.
 -------------------------------------------------------------------------------

 -------------------------------------------------------------------------------
 -                                                                             -
 -                                DBM STATISTICS                               -
 -                                                                             -
 -------------------------------------------------------------------------------
    M  x    N  x    K                                          COUNT     PERCENT
 -------------------------------------------------------------------------------

 -------------------------------------------------------------------------------
 -                                                                             -
 -                                GRID STATISTICS                              -
 -                                                                             -
 -------------------------------------------------------------------------------
 LP    KERNEL             BACKEND                              COUNT     PERCENT
 1     collocate ortho    CPU                                 259074      15.65%
 2     collocate ortho    CPU                                 211566      12.78%
 1     integrate ortho    CPU                                 207236      12.52%
 0     collocate ortho    CPU                                 180708      10.92%
 2     integrate ortho    CPU                                 173252      10.47%
 3     collocate ortho    CPU                                 142524       8.61%
 0     integrate ortho    CPU                                 140008       8.46%
 3     integrate ortho    CPU                                 118048       7.13%
 4     collocate ortho    CPU                                  61272       3.70%
 4     integrate ortho    CPU                                  52608       3.18%
 4     collocate general  CPU                                  21504       1.30%
 5     collocate ortho    CPU                                  18648       1.13%
 5     integrate ortho    CPU                                  16656       1.01%
 4     integrate general  CPU                                  16512       1.00%
 2     collocate general  CPU                                  14336       0.87%
 2     integrate general  CPU                                  11008       0.67%
 6     collocate ortho    CPU                                   4662       0.28%
 6     integrate ortho    CPU                                   4284       0.26%
 5     integrate general  CPU                                    384       0.02%
 3     integrate general  CPU                                    256       0.02%
 7     integrate ortho    CPU                                    168       0.01%
 0     collocate general  CPU                                    160       0.01%
 0     integrate general  CPU                                    160       0.01%
 -------------------------------------------------------------------------------

 MEMORY| Estimated peak process memory [MiB]                                1282

 -------------------------------------------------------------------------------
 ----                             MULTIGRID INFO                            ----
 -------------------------------------------------------------------------------
 count for grid        1:         109543          cutoff [a.u.]          200.00
 count for grid        2:          22505          cutoff [a.u.]           66.67
 count for grid        3:           8627          cutoff [a.u.]           22.22
 count for grid        4:           1858          cutoff [a.u.]            7.41
 total gridlevel count  :         142533

 -------------------------------------------------------------------------------
 -                                                                             -
 -                         MESSAGE PASSING PERFORMANCE                         -
 -                                                                             -
 -------------------------------------------------------------------------------

 ROUTINE             CALLS      AVE VOLUME [Bytes]
 MP_Group                5
 MP_Bcast             4965                 947408.
 MP_Allreduce        15571                 143267.
 MP_Sync              1493
 MP_Alltoall          4404               15007357.
 MP_SendRecv         10050                 234030.
 MP_ISendRecv        16785                 125393.
 MP_Wait             35449
 MP_comm_split          50
 MP_ISend            16087                 822531.
 MP_IRecv            16254                 813722.
 -------------------------------------------------------------------------------


 -------------------------------------------------------------------------------
 -                                                                             -
 -                           R E F E R E N C E S                               -
 -                                                                             -
 -------------------------------------------------------------------------------
 
 CP2K version 2024.1 (Development Version), the CP2K developers group (2024).
 CP2K is freely available from https://www.cp2k.org/ .

 Kuehne,Thomas D.; Iannuzzi,Marcella; Del Ben,Mauro;
 Rybkin,Vladimir V.; Seewald,Patrick; Stein,Frederick; Laino,Teodoro;
 Khaliullin,Rustam Z.; Schuett,Ole; Schiffmann,Florian; Golze,Dorothea;
 Wilhelm,Jan; Chulkov,Sergey; Bani-Hashemian,Mohammad Hossein;
 Weber,Valery; Borstnik,Urban; Taillefumier,Mathieu;
 Jakobovits,Alice Shoshana; Lazzaro,Alfio; Pabst,Hans; Mueller,Tiziano;
 Schade,Robert; Guidon,Manuel; Andermatt,Samuel; Holmberg,Nico;
 Schenter,Gregory K.; Hehn,Anna; Bussy,Augustin; Belleflamme,Fabian;
 Tabacchi,Gloria; Gloess,Andreas; Lass,Michael; Bethune,Iain;
 Mundy,Christopher J.; Plessl,Christian; Watkins,Matt;
 VandeVondele,Joost; Krack,Matthias; Hutter,Juerg. 
 The Journal of Chemical Physics, 152 (19), (2020). 
 CP2K: An electronic structure and molecular dynamics software package -
 Quickstep: Efficient and accurate electronic structure calculations.
 https://doi.org/10.1063/5.0007045

 Goerigk, Lars; Hansen, Andreas; Bauer, Christoph; Ehrlich, Stephan;
 Najibi, Asim; Grimme, Stefan. , 19 (48), (2017). 
 A look at the density functional theory zoo with the advanced GMTKN55 database
 for general main group thermochemistry, kinetics and noncovalent interactions.
 https://doi.org/10.1039/C7CP04913G

 Schuett, Ole; Messmer, Peter; Hutter, Juerg; VandeVondele, Joost. 
 Electronic Structure Calculations on Graphics Processing Units, John
 Wiley & Sons, Ltd, 173-190 (2016). 
 GPU-Accelerated Sparse Matrix-Matrix Multiplication for
 Linear Scaling Density Functional Theory.
 https://doi.org/10.1002/9781118670712.ch8

 Heinecke, A; Henry, G; Hutchinson, M; Pabst, H. 
 Proceedings of Intl. Supercomputing Conference, 981-991 (2016). 
 LIBXSMM: Accelerating Small Matrix Multiplications
 by Runtime Code Generation.
 https://doi.org/10.1109/SC.2016.83

 Borstnik, U; VandeVondele, J; Weber, V; Hutter, J. 
 PARALLEL COMPUTING, 40 (5-6), 47-58 (2014). 
 Sparse matrix multiplication: The distributed block-compressed sparse
 row library.
 https://doi.org/10.1016/j.parco.2014.03.012

 Hutter, J; Iannuzzi, M; Schiffmann, F; VandeVondele, J. 
 WIREs Comput Mol Sci., 4 (1), 15-25 (2014). 
 CP2K: atomistic simulations of condensed matter systems.
 https://doi.org/10.1002/wcms.1159

 Grimme, S; Ehrlich, S; Goerigk, L. 
 JOURNAL OF COMPUTATIONAL CHEMISTRY, 32, 1456 (2011). 
 Effect of the damping function in dispersion corrected density functional theory.
 https://doi.org/10.1002/jcc.21759

 Grimme, S; Antony, J; Ehrlich, S; Krieg, H. 
 JOURNAL OF CHEMICAL PHYSICS, 132 (15), 154104 (2010). 
 A consistent and accurate ab initio parametrization of density
 functional dispersion correction (DFT-D) for the 94 elements H-Pu.
 https://doi.org/10.1063/1.3382344

 Guidon, M; Hutter, J; VandeVondele, J. 
 JOURNAL OF CHEMICAL THEORY AND COMPUTATION, 5 (11), 3010-3021 (2009). 
 Robust Periodic Hartree-Fock Exchange for Large-Scale Simulations Using
 Gaussian Basis Sets.
 https://doi.org/10.1021/ct900494g

 Guidon, M; Schiffmann, F; Hutter, J; VandeVondele, J. 
 JOURNAL OF CHEMICAL PHYSICS, 128 (21), 214104 (2008). 
 Ab initio molecular dynamics using hybrid density functionals.
 https://doi.org/10.1063/1.2931945

 VandeVondele, J; Hutter, J. 
 JOURNAL OF CHEMICAL PHYSICS, 127 (11), 114105 (2007). 
 Gaussian basis sets for accurate calculations on molecular systems in
 gas and condensed phases.
 https://doi.org/10.1063/1.2770708

 Frigo, M; Johnson, SG. 
 PROCEEDINGS OF THE IEEE, 93 (2), 216-231 (2005). 
 The design and implementation of FFTW3.
 https://doi.org/10.1109/JPROC.2004.840301

 Iannuzzi, M; Chassaing, T; Wallman, T; Hutter, J. 
 CHIMIA, 59 (7-8), 499-503 (2005). 
 Ground and excited state density functional calculations with the
 Gaussian and augmented-plane-wave method.
 https://doi.org/10.2533/000942905777676164

 VandeVondele, J; Hutter, J. 
 JOURNAL OF CHEMICAL PHYSICS, 118 (10), 4365-4369 (2003). 
 An efficient orbital transformation method for electronic structure
 calculations.
 https://doi.org/10.1063/1.1543154

 Martin,Richard L.. 
 The Journal of Chemical Physics, 118 (11), 4775-4777 (2003). 
 Natural transition orbitals.
 https://doi.org/10.1063/1.1558471

 Lippert, G; Hutter, J; Parrinello, M. 
 THEORETICAL CHEMISTRY ACCOUNTS, 103 (2), 124-140 (1999). 
 The Gaussian and augmented-plane-wave density functional method for ab
 initio molecular dynamics simulations.
 https://doi.org/10.1007/s002140050523

 Krack, M; Parrinello, M. 
 PHYSICAL CHEMISTRY CHEMICAL PHYSICS, 2 (10), 2105-2112 (2000). 
 All-electron ab-initio molecular dynamics.
 https://doi.org/10.1039/b001167n

 Martyna, GJ; Tuckerman, ME. 
 JOURNAL OF CHEMICAL PHYSICS, 110 (6), 2810-2821 (1999). 
 A reciprocal space based method for treating long range interactions in
 ab initio and force-field-based calculations in clusters.
 https://doi.org/10.1063/1.477923

 BECKE, AD. PHYSICAL REVIEW A, 38 (6), 3098-3100 (1988). 
 DENSITY-FUNCTIONAL EXCHANGE-ENERGY APPROXIMATION WITH CORRECT
 ASYMPTOTIC-BEHAVIOR.
 https://doi.org/10.1103/PhysRevA.38.3098

 LEE, CT; YANG, WT; PARR, RG. 
 PHYSICAL REVIEW B, 37 (2), 785-789 (1988). 
 DEVELOPMENT OF THE COLLE-SALVETTI CORRELATION-ENERGY FORMULA INTO A
 FUNCTIONAL OF THE ELECTRON-DENSITY.
 https://doi.org/10.1103/PhysRevB.37.785

 VOSKO, SH; WILK, L; NUSAIR, M. 
 CANADIAN JOURNAL OF PHYSICS, 58 (8), 1200-1211 (1980). 
 ACCURATE SPIN-DEPENDENT ELECTRON LIQUID CORRELATION ENERGIES FOR LOCAL
 SPIN-DENSITY CALCULATIONS - A CRITICAL ANALYSIS.
 https://doi.org/10.1139/p80-159


 -------------------------------------------------------------------------------
 -                                                                             -
 -                                T I M I N G                                  -
 -                                                                             -
 -------------------------------------------------------------------------------
 SUBROUTINE                       CALLS  ASD         SELF TIME        TOTAL TIME
                                MAXIMUM       AVERAGE  MAXIMUM  AVERAGE  MAXIMUM
 CP2K                                 1  1.0    0.014    0.018  282.803  282.804
 qs_forces                            1  2.0    0.001    0.001  281.808  281.809
 qs_energies                          1  3.0    0.000    0.000  182.678  182.678
 qs_energies_properties               1  4.0    0.000    0.000  160.605  160.606
 tddfpt                               1  5.0    0.000    0.000  160.605  160.605
 tddfpt_energies                      1  6.0    0.000    0.000  125.572  125.572
 tddfpt_davidson_solver               2  7.0    0.002    0.003  124.840  124.840
 tddfpt_compute_Aop_evects           12  8.0    0.000    0.000  124.442  124.442
 excited_state_energy                 2  3.5    0.001    0.002   86.270   86.271
 fft_wrap_pw1pw2                   3982 12.1    0.044    0.051   76.682   81.011
 fft_wrap_pw1pw2_200               2775 13.4    2.304    2.366   74.301   78.863
 fhxc_kernel                         12  9.0    0.004    0.004   78.757   78.757
 response_equation                    1  4.0    0.000    0.000   65.113   65.113
 linres_solver                        1  5.0    0.001    0.003   65.078   65.078
 apply_op                            46  6.0    0.001    0.001   65.004   65.005
 integrate_four_center              283 10.6    0.060    0.063   63.897   63.907
 fft3d_ps                          3982 14.1   31.746   33.992   56.432   60.828
 integrate_four_center_main         283 11.6    0.025    0.030   58.536   60.822
 integrate_four_center_bin        26885 12.6   58.511   60.795   58.511   60.795
 derivatives_four_center              4  8.5    0.004    0.005   48.872   50.105
 derivatives_four_center_main         4  9.5    0.000    0.001   48.785   50.018
 derivatives_four_center_bin        416 10.5   46.123   48.702   46.123   48.702
 tddfpt_apply_hfx                    12  9.0    0.002    0.002   45.566   45.566
 tddft_hfx_matrix                   216 10.0    0.005    0.005   45.107   45.108
 xc_pw_derive                      1440 12.4    0.012    0.012   42.841   44.948
 apply_op_2_dft                      45  7.0    0.003    0.003   38.134   38.215
 prepare_gapw_den                   228  8.8    0.006    0.006   35.912   36.079
 tddfpt_forces_main                   1  6.0    0.000    0.000   34.953   34.953
 tddfpt_forces                        1  7.0    0.000    0.000   33.650   33.650
 tddfpt_force_direct                  1  8.0    0.000    0.000   33.044   33.045
 tddfpt_kernel_force                  1  9.0    0.000    0.000   33.035   33.035
 fhxc_force                           1 10.0    0.001    0.001   33.035   33.035
 rebuild_ks_matrix                   18  6.8    0.000    0.000   32.506   32.507
 qs_ks_build_kohn_sham_matrix        18  7.8    0.002    0.003   32.506   32.507
 xc_pw_divergence                   216 12.2    0.006    0.006   26.299   28.102
 tddfpt_apply_xc_analytic           108 10.0    1.270    1.404   25.103   25.317
 calculate_rho_elec                 222  9.6    0.365    0.390   24.155   24.160
 qs_rho_update_rho_low              217  8.6    0.002    0.002   24.146   24.149
 scf_env_do_scf                       1  4.0    0.000    0.000   21.871   21.871
 qs_fxc_analytic                     46  8.0    0.002    0.002   21.246   21.329
 mp_alltoall_z22v                  3982 16.1   13.533   21.321   13.533   21.321
 response_force                       1  4.0    0.005    0.007   21.156   21.156
 calculate_rho0_atom                672  9.8   19.589   20.972   19.589   20.972
 xc_calc_2nd_deriv_analytical       807 11.1    1.697    1.882   20.333   20.803
 hfx_ks_matrix                       18  8.8    0.001    0.001   20.367   20.367
 xc_rho_set_and_dset_create         109 12.0    1.977    2.279   16.596   19.927
 qs_ks_update_qs_env                 19  6.0    0.000    0.000   19.705   19.705
 density_rs2pw                      222 10.6    0.009    0.009   18.768   19.668
 yz_to_x                           2035 15.3    4.606    5.137   13.637   18.390
 integrate_v_rspace                 180  9.4    0.004    0.004   16.724   17.495
 qs_vxc_create                       61 11.7    0.001    0.001   16.947   16.954
 xc_vxc_pw_create                    61 12.7    0.174    0.192   16.946   16.953
 scf_env_do_scf_inner_loop           17  5.0    0.000    0.001   16.152   16.152
 xc_calc_2nd_deriv                   47  8.9    0.530    0.621   13.510   15.375
 tddfpt_apply_coulomb               108 10.0    0.002    0.002   13.264   14.811
 x_to_yz                           1947 15.0    6.484    7.277   10.986   13.565
 qs_ks_update_qs_env_forces           1  3.0    0.000    0.000   12.802   12.802
 potential_pw2rs                    180 10.4    0.018    0.019   11.722   12.498
 qs_fgxc_gdiff                        1 11.0    0.000    0.000   11.887   11.888
 qs_fxc_fdiff                         7 12.0    0.001    0.001   11.857   11.859
 put_rho0_on_grid                   224  9.8    0.409    0.460   10.368   10.574
 transfer_rs2pw                    1113 11.4    0.012    0.014    9.121   10.052
 xc_prep_2nd_deriv                   48  8.9    0.000    0.000    8.351   10.027
 apply_hfx                           45  7.0    0.001    0.001    9.470    9.477
 hfx_matrix                          45  8.0    0.001    0.001    9.466    9.473
 pw_gather_p                       2035 14.3    8.641    8.918    8.641    8.918
 transfer_rs2pw_200                 447 12.2    3.576    3.704    7.168    8.139
 integrate_vhg0_rspace              176  9.9    1.896    2.032    8.113    8.125
 pw_poisson_solve                   177  9.9    0.003    0.003    6.161    7.843
 transfer_pw2rs                     897 11.3    0.008    0.009    7.802    7.836
 mp_sum_d                          2266  9.2    4.597    7.235    4.597    7.235
 xc_functional_eval                3364 11.9    0.004    0.008    3.865    7.136
 pw_scatter_p                      1947 14.0    6.416    6.540    6.416    6.540
 mp_waitany                       16080 13.2    5.172    6.223    5.172    6.223
 grid_collocate_task_list           222 10.6    4.622    6.109    4.622    6.109
 transfer_pw2rs_200                 357 12.1    3.005    3.042    6.046    6.102
 init_scf_loop                        1  5.0    0.000    0.000    5.719    5.719
 -------------------------------------------------------------------------------

 The number of warnings for this run is : 0
 
 -------------------------------------------------------------------------------
  **** **** ******  **  PROGRAM ENDED AT                 2025-01-06 15:33:17.394
 ***** ** ***  *** **   PROGRAM RAN ON                               nesh-clk495
 **    ****   ******    PROGRAM RAN BY                                  suphc356
 ***** **    ** ** **   PROGRAM PROCESS ID                               3987474
  **** **  *******  **  PROGRAM STOPPED IN /gxfs_work/cau/suphc356/NEWTONX_proje
                                           ct/Pyrazin_molecule/CP2K_GAPW_B3LYP_d
                                           ef2_TZVP/MOLDYN_BA_again/TRAJECTORIES
                                           /TRAJ76/TEMP
