 DBCSR| CPU Multiplication driver                                           XSMM (U)
 DBCSR| Multrec recursion limit                                              512 (U)
 DBCSR| Multiplication stack size                                           1000 (D)
 DBCSR| Maximum elements for images                                    UNLIMITED (U)
 DBCSR| Multiplicative factor virtual images                                   1 (U)
 DBCSR| Use multiplication densification                                       T (D)
 DBCSR| Multiplication size stacks                                             3 (U)
 DBCSR| Use memory pool for CPU allocation                                     F (U)
 DBCSR| Number of 3D layers                                               SINGLE (U)
 DBCSR| Use MPI memory allocation                                              F (U)
 DBCSR| Use RMA algorithm                                                      F (U)
 DBCSR| Use Communication thread                                               T (U)
 DBCSR| Communication thread load                                             87 (D)
 DBCSR| MPI: My process id                                                     0
 DBCSR| MPI: Number of processes                                              16
 DBCSR| OMP: Current number of threads                                         1
 DBCSR| OMP: Max number of threads                                             1
 DBCSR| Split modifier for TAS multiplication algorithm                  1.0E+00 (U)


  **** **** ******  **  PROGRAM STARTED AT               2025-01-06 14:00:22.058
 ***** ** ***  *** **   PROGRAM STARTED ON                           nesh-clk367
 **    ****   ******    PROGRAM STARTED BY                              suphc356
 ***** **    ** ** **   PROGRAM PROCESS ID                                143145
  **** **  *******  **  PROGRAM STARTED IN /gxfs_work/cau/suphc356/NEWTONX_proje
                                           ct/Pyrazin_molecule/CP2K_GAPW_B3LYP_d
                                           ef2_TZVP/MOLDYN_BA_again/TRAJECTORIES
                                           /TRAJ73/TEMP

 CP2K| version string:                 CP2K version 2024.1 (Development Version)
 CP2K| source code revision number:                                  git:990486a
 CP2K| cp2kflags: omp libint fftw3 libxc libgrpp parallel mpi_f08 scalapack cosm
 CP2K|            a xsmm spglib mkl
 CP2K| is freely available from                            https://www.cp2k.org/
 CP2K| Program compiled at                          Mon Mar 11 08:48:45 CET 2024
 CP2K| Program compiled on                                           nesh-login2
 CP2K| Program compiled for                                                local
 CP2K| Data directory path                 /gxfs_work/cau/suphc356/cp2k_gcc/data
 CP2K| Input file name                                                  cp2k.inp

 GLOBAL| Force Environment number                                              1
 GLOBAL| Basis set file name                                     EMSL_BASIS_SETS
 GLOBAL| Potential file name                                      ALL_POTENTIALS
 GLOBAL| MM Potential file name                                     MM_POTENTIAL
 GLOBAL| Coordinate file name                                      __STD_INPUT__
 GLOBAL| Method name                                                        CP2K
 GLOBAL| Project name                                               testsuite_ad
 GLOBAL| Run type                                                   ENERGY_FORCE
 GLOBAL| FFT library                                                       FFTW3
 GLOBAL| Diagonalization library                                       ScaLAPACK
 GLOBAL| DGEMM library                                                      BLAS
 GLOBAL| Orthonormality check for eigenvectors                          DISABLED
 GLOBAL| Matrix multiplication library                                     COSMA
 GLOBAL| All-to-all communication in single precision                          F
 GLOBAL| FFTs using library dependent lengths                                  F
 GLOBAL| Grid backend                                                       AUTO
 GLOBAL| Global print level                                               MEDIUM
 GLOBAL| MPI I/O enabled                                                       T
 GLOBAL| Total number of message passing processes                            16
 GLOBAL| Number of threads for this process                                    1
 GLOBAL| This output is from process                                           0
 GLOBAL| Stack size for threads created by OpenMP (OMP_STACKSIZE)           256M
 GLOBAL| CPU model name                Intel(R) Xeon(R) Gold 6226R CPU @ 2.90GHz
 GLOBAL| CPUID                                                              1003
 GLOBAL| Compiled for CPUID                                                    0

 *** HINT in environment.F:920 :: The compiler target flags (generic) used ***
 *** to build this binary cannot exploit all extensions of this CPU model  ***
 *** (x86_avx512). Consider compiler target flags as part of FCFLAGS and   ***
 *** CFLAGS (ARCH file).                                                   ***


 MEMORY| system memory details [Kb]
 MEMORY|                        rank 0           min           max       average
 MEMORY| MemTotal            196683224     196683224     196683224     196683224
 MEMORY| MemFree             172485548     172485548     172485548     172485548
 MEMORY| Buffers                340788        340788        340788        340788
 MEMORY| Cached                 581916        581916        581916        581916
 MEMORY| Slab                  8933480       8933480       8933480       8933480
 MEMORY| SReclaimable           158812        158812        158812        158812
 MEMORY| MemLikelyFree       173567064     173567064     173567064     173567064


 *** Fundamental physical constants (SI units) ***

 *** Literature: B. J. Mohr and B. N. Taylor,
 ***             CODATA recommended values of the fundamental physical
 ***             constants: 2006, Web Version 5.1
 ***             http://physics.nist.gov/constants

 Speed of light in vacuum [m/s]                             2.99792458000000E+08
 Magnetic constant or permeability of vacuum [N/A**2]       1.25663706143592E-06
 Electric constant or permittivity of vacuum [F/m]          8.85418781762039E-12
 Planck constant (h) [J*s]                                  6.62606896000000E-34
 Planck constant (h-bar) [J*s]                              1.05457162825177E-34
 Elementary charge [C]                                      1.60217648700000E-19
 Electron mass [kg]                                         9.10938215000000E-31
 Electron g factor [ ]                                     -2.00231930436220E+00
 Proton mass [kg]                                           1.67262163700000E-27
 Fine-structure constant                                    7.29735253760000E-03
 Rydberg constant [1/m]                                     1.09737315685270E+07
 Avogadro constant [1/mol]                                  6.02214179000000E+23
 Boltzmann constant [J/K]                                   1.38065040000000E-23
 Atomic mass unit [kg]                                      1.66053878200000E-27
 Bohr radius [m]                                            5.29177208590000E-11

 *** Conversion factors ***

 [u] -> [a.u.]                                              1.82288848426455E+03
 [Angstrom] -> [Bohr] = [a.u.]                              1.88972613288564E+00
 [a.u.] = [Bohr] -> [Angstrom]                              5.29177208590000E-01
 [a.u.] -> [s]                                              2.41888432650478E-17
 [a.u.] -> [fs]                                             2.41888432650478E-02
 [a.u.] -> [J]                                              4.35974393937059E-18
 [a.u.] -> [N]                                              8.23872205491840E-08
 [a.u.] -> [K]                                              3.15774647902944E+05
 [a.u.] -> [kJ/mol]                                         2.62549961709828E+03
 [a.u.] -> [kcal/mol]                                       6.27509468713739E+02
 [a.u.] -> [Pa]                                             2.94210107994716E+13
 [a.u.] -> [bar]                                            2.94210107994716E+08
 [a.u.] -> [atm]                                            2.90362800883016E+08
 [a.u.] -> [eV]                                             2.72113838565563E+01
 [a.u.] -> [Hz]                                             6.57968392072181E+15
 [a.u.] -> [1/cm] (wave numbers)                            2.19474631370540E+05
 [a.u./Bohr**2] -> [1/cm]                                   5.14048714338585E+03
 

 CELL_TOP| Volume [angstrom^3]:                                      2744.000000
 CELL_TOP| Vector a [angstrom    14.000     0.000     0.000   |a| =    14.000000
 CELL_TOP| Vector b [angstrom     0.000    14.000     0.000   |b| =    14.000000
 CELL_TOP| Vector c [angstrom     0.000     0.000    14.000   |c| =    14.000000
 CELL_TOP| Angle (b,c), alpha [degree]:                                90.000000
 CELL_TOP| Angle (a,c), beta  [degree]:                                90.000000
 CELL_TOP| Angle (a,b), gamma [degree]:                                90.000000
 CELL_TOP| Numerically orthorhombic:                                         YES
 CELL_TOP| Periodicity                                                      NONE

 CELL| Volume [angstrom^3]:                                          2744.000000
 CELL| Vector a [angstrom]:      14.000     0.000     0.000   |a| =    14.000000
 CELL| Vector b [angstrom]:       0.000    14.000     0.000   |b| =    14.000000
 CELL| Vector c [angstrom]:       0.000     0.000    14.000   |c| =    14.000000
 CELL| Angle (b,c), alpha [degree]:                                    90.000000
 CELL| Angle (a,c), beta  [degree]:                                    90.000000
 CELL| Angle (a,b), gamma [degree]:                                    90.000000
 CELL| Numerically orthorhombic:                                             YES
 CELL| Periodicity                                                          NONE

 CELL_REF| Volume [angstrom^3]:                                      2744.000000
 CELL_REF| Vector a [angstrom    14.000     0.000     0.000   |a| =    14.000000
 CELL_REF| Vector b [angstrom     0.000    14.000     0.000   |b| =    14.000000
 CELL_REF| Vector c [angstrom     0.000     0.000    14.000   |c| =    14.000000
 CELL_REF| Angle (b,c), alpha [degree]:                                90.000000
 CELL_REF| Angle (a,c), beta  [degree]:                                90.000000
 CELL_REF| Angle (a,b), gamma [degree]:                                90.000000
 CELL_REF| Numerically orthorhombic:                                         YES
 CELL_REF| Periodicity                                                      NONE

 *******************************************************************************
 *******************************************************************************
 **                                                                           **
 **     #####                         ##              ##                      **
 **    ##   ##            ##          ##              ##                      **
 **   ##     ##                       ##            ######                    **
 **   ##     ##  ##   ##  ##   #####  ##  ##   ####   ##    #####    #####    **
 **   ##     ##  ##   ##  ##  ##      ## ##   ##      ##   ##   ##  ##   ##   **
 **   ##  ## ##  ##   ##  ##  ##      ####     ###    ##   ######   ######    **
 **    ##  ###   ##   ##  ##  ##      ## ##      ##   ##   ##       ##        **
 **     #######   #####   ##   #####  ##  ##  ####    ##    #####   ##        **
 **           ##                                                    ##        **
 **                                                                           **
 **                                                ... make the atoms dance   **
 **                                                                           **
 **            Copyright (C) by CP2K developers group (2000-2024)             **
 **                      J. Chem. Phys. 152, 194103 (2020)                    **
 **                                                                           **
 *******************************************************************************

 DFT| Spin restricted Kohn-Sham (RKS) calculation                            RKS
 DFT| Multiplicity                                                             1
 DFT| Number of spin states                                                    1
 DFT| Charge                                                                   0
 DFT| Self-interaction correction (SIC)                                       NO
 DFT| Cutoffs: density                                              1.000000E-10
 DFT|          gradient                                             1.000000E-10
 DFT|          tau                                                  1.000000E-10
 DFT|          cutoff_smoothing_range                               0.000000E+00
 DFT| XC density smoothing                                                  NONE
 DFT| XC derivatives                                                          PW

 FUNCTIONAL| BECKE88:
 FUNCTIONAL| A. Becke, Phys. Rev. A 38, 3098 (1988) {LDA version}               
 FUNCTIONAL| LYP:
 FUNCTIONAL| C. Lee, W. Yang, R.G. Parr, Phys. Rev. B, 37, 785 (1988) {LDA versi
 FUNCTIONAL| on}                                                                
 FUNCTIONAL| VWN:
 FUNCTIONAL| S. H. Vosko, L. Wilk and M. Nusair, Can. J. Phys. 58, 1200 (1980) {
 FUNCTIONAL| LDA version}                                                       
 FUNCTIONAL| XALPHA:
 FUNCTIONAL| Dirac/Slater local exchange; parameter=  0.666 {LDA}               

 vdW POTENTIAL|                                                   Pair Potential
 vdW POTENTIAL|          DFT-D3 (Version 3.1)
 vdW POTENTIAL|          Potential Form: S. Grimme et al, JCP 132: 154104 (2010)
 vdW POTENTIAL|          Zero Damping
 vdW POTENTIAL|          Cutoff Radius [Bohr]:                             37.79
 vdW POTENTIAL|          s6 Scaling Factor:                               1.0000
 vdW POTENTIAL|          sr6 Scaling Factor:                              1.2610
 vdW POTENTIAL|          s8 Scaling Factor:                               1.7030
 vdW POTENTIAL|          Cutoff for CN calculation:                   0.1000E-05

 QS| Method:                                                                GAPW
 QS| Density plane wave grid type                        NON-SPHERICAL FULLSPACE
 QS| Number of grid levels:                                                    4
 QS| Density cutoff [a.u.]:                                                200.0
 QS| Multi grid cutoff [a.u.]: 1) grid level                               200.0
 QS|                           2) grid level                                66.7
 QS|                           3) grid level                                22.2
 QS|                           4) grid level                                 7.4
 QS| Grid level progression factor:                                          3.0
 QS| Relative density cutoff [a.u.]:                                        30.0
 QS| Interaction thresholds: eps_pgf_orb:                                1.0E-07
 QS|                         eps_filter_matrix:                          0.0E+00
 QS|                         eps_core_charge:                            1.0E-16
 QS|                         eps_rho_gspace:                             1.0E-14
 QS|                         eps_rho_rspace:                             1.0E-14
 QS|                         eps_gvg_rspace:                             1.0E-07
 QS|                         eps_ppl:                                    1.0E-02
 QS|                         eps_ppnl:                                   1.0E-09
 QS| GAPW|      One center basis extended with primitives (small:s)
 QS| GAPW|                   eps_fit:                                    1.0E-04
 QS| GAPW|                   eps_iso:                                    1.0E-12
 QS| GAPW|                   eps_svd:                                    1.0E-08
 QS| GAPW|                   eps_cpc:                                    1.0E-14
 QS| GAPW|   atom-r-grid: quadrature:                                     GC_LOG
 QS| GAPW|      atom-s-grid:  max l :                                          6
 QS| GAPW|      max_l_rho0 :                                                   4


 ATOMIC KIND INFORMATION

  1. Atomic kind: n                                     Number of atoms:       2

     Orbital Basis Set                                        Ahlrichs-def2-TZVP

       Number of orbital shell sets:                                          11
       Number of orbital shells:                                              11
       Number of primitive Cartesian functions:                               20
       Number of Cartesian basis functions:                                   36
       Number of spherical basis functions:                                   31
       Norm type:                                                              2

       Normalised Cartesian orbitals:

                        Set   Shell   Orbital            Exponent    Coefficient

                          1       1    1s            19730.800647       0.695604
                                                      2957.895874       1.298610
                                                       673.221336       2.219088
                                                       190.682495       3.463661
                                                        62.295442       4.696756
                                                        22.654161       4.952251

                          2       1    1s                8.979148       2.388068
                                                         3.686300       0.733788

                          3       1    1s                0.846601       0.629027

                          4       1    1s                0.336471       0.314863

                          5       1    1s                0.136477       0.160031

                          6       1    1px              49.200381       2.126481
                                                        11.346791       2.327937
                                                         3.427397       2.048573
                                                         1.178553       1.260732
                          6       1    1py              49.200381       2.126481
                                                        11.346791       2.327937
                                                         3.427397       2.048573
                                                         1.178553       1.260732
                          6       1    1pz              49.200381       2.126481
                                                        11.346791       2.327937
                                                         3.427397       2.048573
                                                         1.178553       1.260732

                          7       1    1px               0.416422       0.476823
                          7       1    1py               0.416422       0.476823
                          7       1    1pz               0.416422       0.476823

                          8       1    1px               0.142608       0.124917
                          8       1    1py               0.142608       0.124917
                          8       1    1pz               0.142608       0.124917

                          9       1    1dx2              1.654000       3.970513
                          9       1    1dxy              1.654000       6.877130
                          9       1    1dxz              1.654000       6.877130
                          9       1    1dy2              1.654000       3.970513
                          9       1    1dyz              1.654000       6.877130
                          9       1    1dz2              1.654000       3.970513

                         10       1    1dx2              0.469000       0.437484
                         10       1    1dxy              0.469000       0.757744
                         10       1    1dxz              0.469000       0.757744
                         10       1    1dy2              0.469000       0.437484
                         10       1    1dyz              0.469000       0.757744
                         10       1    1dz2              0.469000       0.437484

                         11       1    1fx3              1.093000       1.798249
                         11       1    1fx2y             1.093000       4.021007
                         11       1    1fx2z             1.093000       4.021007
                         11       1    1fxy2             1.093000       4.021007
                         11       1    1fxyz             1.093000       6.964588
                         11       1    1fxz2             1.093000       4.021007
                         11       1    1fy3              1.093000       1.798249
                         11       1    1fy2z             1.093000       4.021007
                         11       1    1fyz2             1.093000       4.021007
                         11       1    1fz3              1.093000       1.798249

       Atomic covalent radius [Angstrom]:                                  0.750

       Atomic van der Waals radius [Angstrom]:                             1.550

     The atoms of this atomic kind are PAW atoms (GAPW):
       Hard Gaussian function radius:                                      1.400
       Rho0 radius:                                                        1.400
       Maximum GTO radius used for PAW projector construction:            24.566

     GAPW Soft Basis Set                                 Ahlrichs-def2-TZVP_soft

       Number of orbital shell sets:                                          11
       Number of orbital shells:                                              11
       Number of primitive Cartesian functions:                               11
       Number of Cartesian basis functions:                                   36
       Number of spherical basis functions:                                   31
       Norm type:                                                              2

       Normalised Cartesian orbitals:

                        Set   Shell   Orbital            Exponent    Coefficient

                          1       1    1s         

                          2       1    1s                3.686300       0.733788

                          3       1    1s                0.846601       0.629027

                          4       1    1s                0.336471       0.314863

                          5       1    1s                0.136477       0.160031

                          6       1    1px               3.427397       2.048573
                                                         1.178553       1.260732
                          6       1    1py               3.427397       2.048573
                                                         1.178553       1.260732
                          6       1    1pz               3.427397       2.048573
                                                         1.178553       1.260732

                          7       1    1px               0.416422       0.476823
                          7       1    1py               0.416422       0.476823
                          7       1    1pz               0.416422       0.476823

                          8       1    1px               0.142608       0.124917
                          8       1    1py               0.142608       0.124917
                          8       1    1pz               0.142608       0.124917

                          9       1    1dx2              1.654000       3.970513
                          9       1    1dxy              1.654000       6.877130
                          9       1    1dxz              1.654000       6.877130
                          9       1    1dy2              1.654000       3.970513
                          9       1    1dyz              1.654000       6.877130
                          9       1    1dz2              1.654000       3.970513

                         10       1    1dx2              0.469000       0.437484
                         10       1    1dxy              0.469000       0.757744
                         10       1    1dxz              0.469000       0.757744
                         10       1    1dy2              0.469000       0.437484
                         10       1    1dyz              0.469000       0.757744
                         10       1    1dz2              0.469000       0.437484

                         11       1    1fx3              1.093000       1.798249
                         11       1    1fx2y             1.093000       4.021007
                         11       1    1fx2z             1.093000       4.021007
                         11       1    1fxy2             1.093000       4.021007
                         11       1    1fxyz             1.093000       6.964588
                         11       1    1fxz2             1.093000       4.021007
                         11       1    1fy3              1.093000       1.798249
                         11       1    1fy2z             1.093000       4.021007
                         11       1    1fyz2             1.093000       4.021007
                         11       1    1fz3              1.093000       1.798249

     AE Potential information for                                            ALL

       Description:                                       All-electron potential
                                          Krack, Parrinello, PCCP 2, 2105 (2000)

       Gaussian exponent of the core charge distribution:               5.979100
       Electronic configuration (s p d ...):                           4   3   0

  2. Atomic kind: c                                     Number of atoms:       4

     Orbital Basis Set                                        Ahlrichs-def2-TZVP

       Number of orbital shell sets:                                          11
       Number of orbital shells:                                              11
       Number of primitive Cartesian functions:                               20
       Number of Cartesian basis functions:                                   36
       Number of spherical basis functions:                                   31
       Norm type:                                                              2

       Normalised Cartesian orbitals:

                        Set   Shell   Orbital            Exponent    Coefficient

                          1       1    1s            13575.349682       0.543591
                                                      2035.233368       1.014554
                                                       463.225624       1.731573
                                                       131.200196       2.691038
                                                        42.853016       3.604455
                                                        15.584186       3.702556

                          2       1    1s                6.206714       1.838354
                                                         2.576490       0.544758

                          3       1    1s                0.576963       0.471815

                          4       1    1s                0.229728       0.236494

                          5       1    1s                0.095164       0.122114

                          6       1    1px              34.697232       1.359665
                                                         7.958262       1.451259
                                                         2.378083       1.270923
                                                         0.814332       0.802572
                          6       1    1py              34.697232       1.359665
                                                         7.958262       1.451259
                                                         2.378083       1.270923
                                                         0.814332       0.802572
                          6       1    1pz              34.697232       1.359665
                                                         7.958262       1.451259
                                                         2.378083       1.270923
                                                         0.814332       0.802572

                          7       1    1px               0.288875       0.301876
                          7       1    1py               0.288875       0.301876
                          7       1    1pz               0.288875       0.301876

                          8       1    1px               0.100568       0.080727
                          8       1    1py               0.100568       0.080727
                          8       1    1pz               0.100568       0.080727

                          9       1    1dx2              1.097000       1.935401
                          9       1    1dxy              1.097000       3.352214
                          9       1    1dxz              1.097000       3.352214
                          9       1    1dy2              1.097000       1.935401
                          9       1    1dyz              1.097000       3.352214
                          9       1    1dz2              1.097000       1.935401

                         10       1    1dx2              0.318000       0.221644
                         10       1    1dxy              0.318000       0.383899
                         10       1    1dxz              0.318000       0.383899
                         10       1    1dy2              0.318000       0.221644
                         10       1    1dyz              0.318000       0.383899
                         10       1    1dz2              0.318000       0.221644

                         11       1    1fx3              0.761000       0.796288
                         11       1    1fx2y             0.761000       1.780553
                         11       1    1fx2z             0.761000       1.780553
                         11       1    1fxy2             0.761000       1.780553
                         11       1    1fxyz             0.761000       3.084008
                         11       1    1fxz2             0.761000       1.780553
                         11       1    1fy3              0.761000       0.796288
                         11       1    1fy2z             0.761000       1.780553
                         11       1    1fyz2             0.761000       1.780553
                         11       1    1fz3              0.761000       0.796288

       Atomic covalent radius [Angstrom]:                                  0.770

       Atomic van der Waals radius [Angstrom]:                             1.700

     The atoms of this atomic kind are PAW atoms (GAPW):
       Hard Gaussian function radius:                                      1.520
       Rho0 radius:                                                        1.520
       Maximum GTO radius used for PAW projector construction:            24.566

     GAPW Soft Basis Set                                 Ahlrichs-def2-TZVP_soft

       Number of orbital shell sets:                                          11
       Number of orbital shells:                                              11
       Number of primitive Cartesian functions:                               11
       Number of Cartesian basis functions:                                   36
       Number of spherical basis functions:                                   31
       Norm type:                                                              2

       Normalised Cartesian orbitals:

                        Set   Shell   Orbital            Exponent    Coefficient

                          1       1    1s         

                          2       1    1s                2.576490       0.544758

                          3       1    1s                0.576963       0.471815

                          4       1    1s                0.229728       0.236494

                          5       1    1s                0.095164       0.122114

                          6       1    1px               2.378083       1.270923
                                                         0.814332       0.802572
                          6       1    1py               2.378083       1.270923
                                                         0.814332       0.802572
                          6       1    1pz               2.378083       1.270923
                                                         0.814332       0.802572

                          7       1    1px               0.288875       0.301876
                          7       1    1py               0.288875       0.301876
                          7       1    1pz               0.288875       0.301876

                          8       1    1px               0.100568       0.080727
                          8       1    1py               0.100568       0.080727
                          8       1    1pz               0.100568       0.080727

                          9       1    1dx2              1.097000       1.935401
                          9       1    1dxy              1.097000       3.352214
                          9       1    1dxz              1.097000       3.352214
                          9       1    1dy2              1.097000       1.935401
                          9       1    1dyz              1.097000       3.352214
                          9       1    1dz2              1.097000       1.935401

                         10       1    1dx2              0.318000       0.221644
                         10       1    1dxy              0.318000       0.383899
                         10       1    1dxz              0.318000       0.383899
                         10       1    1dy2              0.318000       0.221644
                         10       1    1dyz              0.318000       0.383899
                         10       1    1dz2              0.318000       0.221644

                         11       1    1fx3              0.761000       0.796288
                         11       1    1fx2y             0.761000       1.780553
                         11       1    1fx2z             0.761000       1.780553
                         11       1    1fxy2             0.761000       1.780553
                         11       1    1fxyz             0.761000       3.084008
                         11       1    1fxz2             0.761000       1.780553
                         11       1    1fy3              0.761000       0.796288
                         11       1    1fy2z             0.761000       1.780553
                         11       1    1fyz2             0.761000       1.780553
                         11       1    1fz3              0.761000       0.796288

     AE Potential information for                                            ALL

       Description:                                       All-electron potential
                                          Krack, Parrinello, PCCP 2, 2105 (2000)

       Gaussian exponent of the core charge distribution:               4.109048
       Electronic configuration (s p d ...):                           4   2   0

  3. Atomic kind: h                                     Number of atoms:       4

     Orbital Basis Set                                        Ahlrichs-def2-TZVP

       Number of orbital shell sets:                                           4
       Number of orbital shells:                                               4
       Number of primitive Cartesian functions:                                6
       Number of Cartesian basis functions:                                    6
       Number of spherical basis functions:                                    6
       Norm type:                                                              2

       Normalised Cartesian orbitals:

                        Set   Shell   Orbital            Exponent    Coefficient

                          1       1    1s               34.061341       0.255630
                                                         5.123575       0.461360
                                                         1.164663       0.681121

                          2       1    1s                0.327230       0.308355

                          3       1    1s                0.103072       0.129648

                          4       1    1px               0.800000       1.078456
                          4       1    1py               0.800000       1.078456
                          4       1    1pz               0.800000       1.078456

       Atomic covalent radius [Angstrom]:                                  0.320

       Atomic van der Waals radius [Angstrom]:                             1.090

     The atoms of this atomic kind are PAW atoms (GAPW):
       Hard Gaussian function radius:                                      1.000
       Rho0 radius:                                                        1.000
       Maximum GTO radius used for PAW projector construction:            24.566

     GAPW Soft Basis Set                                 Ahlrichs-def2-TZVP_soft

       Number of orbital shell sets:                                           4
       Number of orbital shells:                                               4
       Number of primitive Cartesian functions:                                5
       Number of Cartesian basis functions:                                    6
       Number of spherical basis functions:                                    6
       Norm type:                                                              2

       Normalised Cartesian orbitals:

                        Set   Shell   Orbital            Exponent    Coefficient

                          1       1    1s                5.123575       0.461360
                                                         1.164663       0.681121

                          2       1    1s                0.327230       0.308355

                          3       1    1s                0.103072       0.129648

                          4       1    1px               0.800000       1.078456
                          4       1    1py               0.800000       1.078456
                          4       1    1pz               0.800000       1.078456

     AE Potential information for                                            ALL

       Description:                                       All-electron potential
                                          Krack, Parrinello, PCCP 2, 2105 (2000)

       Gaussian exponent of the core charge distribution:              12.500000
       Electronic configuration (s p d ...):                           1   0   0


 MOLECULE KIND INFORMATION


 All atoms are their own molecule, skipping detailed information


 TOTAL NUMBERS AND MAXIMUM NUMBERS

  Total number of            - Atomic kinds:                                   3
                             - Atoms:                                         10
                             - Shell sets:                                    82
                             - Shells:                                        82
                             - Primitive Cartesian functions:                144
                             - Cartesian basis functions:                    240
                             - Spherical basis functions:                    210

  Maximum angular momentum of the orbital basis functions:                     3


 MODULE QUICKSTEP: ATOMIC COORDINATES IN ANGSTROM

   Atom Kind Element         X             Y             Z       Z(eff)     Mass
      1    1 n     7      7.071098      8.271134      7.490580   7.0000  14.0067
      2    1 n     7      6.997768      6.115398      6.329676   7.0000  14.0067
      3    2 c     6      6.849888      7.369599      8.296188   6.0000  12.0107
      4    2 c     6      7.107142      5.886148      7.573602   6.0000  12.0107
      5    2 c     6      6.936811      8.349699      6.124626   6.0000  12.0107
      6    2 c     6      6.941537      7.064251      5.489617   6.0000  12.0107
      7    3 h     1      6.909695      7.450127      9.496937   1.0000   1.0079
      8    3 h     1      7.053528      4.944421      7.936452   1.0000   1.0079
      9    3 h     1      7.344180      9.055579      5.343930   1.0000   1.0079
     10    3 h     1      6.655820      6.856990      4.503063   1.0000   1.0079



 SCF PARAMETERS         Density guess:                                   RESTART
                        --------------------------------------------------------
                        max_scf:                                              50
                        max_scf_history:                                       0
                        max_diis:                                              4
                        --------------------------------------------------------
                        eps_scf:                                        1.00E-08
                        eps_scf_history:                                0.00E+00
                        eps_diis:                                       1.00E-01
                        eps_eigval:                                     1.00E-05
                        --------------------------------------------------------
                        level_shift [a.u.]:                             0.000000
                        --------------------------------------------------------
                        Outer loop SCF in use 
                        No variables optimised in outer loop
                        eps_scf                                         1.00E-08
                        max_scf                                              900
                        No outer loop optimization
                        step_size                                       5.00E-01

 PW_GRID| Information for grid number                                          1
 PW_GRID| Grid distributed over                                    16 processors
 PW_GRID| Real space group dimensions                                    16    1
 PW_GRID| the grid is blocked:                                                NO
 PW_GRID| Cutoff [a.u.]                                                    400.0
 PW_GRID| spherical cutoff:                                                   NO
 PW_GRID|   Bounds   1           -120     119                Points:         240
 PW_GRID|   Bounds   2           -120     119                Points:         240
 PW_GRID|   Bounds   3           -120     119                Points:         240
 PW_GRID| Volume element (a.u.^3)  0.1340E-02     Volume (a.u.^3)     18517.4301
 PW_GRID| Grid span                                                    FULLSPACE
 PW_GRID|   Distribution                         Average         Max         Min
 PW_GRID|   G-Vectors                           864000.0      864000      864000
 PW_GRID|   G-Rays                                3600.0        3600        3600
 PW_GRID|   Real Space Points                   864000.0      864000      864000

 PW_GRID| Information for grid number                                          2
 PW_GRID| Number of the reference grid                                         1
 PW_GRID| Grid distributed over                                    16 processors
 PW_GRID| Real space group dimensions                                    16    1
 PW_GRID| the grid is blocked:                                                NO
 PW_GRID| Cutoff [a.u.]                                                    200.0
 PW_GRID| spherical cutoff:                                                   NO
 PW_GRID|   Bounds   1            -90      89                Points:         180
 PW_GRID|   Bounds   2            -90      89                Points:         180
 PW_GRID|   Bounds   3            -90      89                Points:         180
 PW_GRID| Volume element (a.u.^3)  0.3175E-02     Volume (a.u.^3)     18517.4301
 PW_GRID| Grid span                                                    FULLSPACE
 PW_GRID|   Distribution                         Average         Max         Min
 PW_GRID|   G-Vectors                           364500.0      364680      364320
 PW_GRID|   G-Rays                                2025.0        2026        2024
 PW_GRID|   Real Space Points                   364500.0      388800      356400

 PW_GRID| Information for grid number                                          3
 PW_GRID| Number of the reference grid                                         2
 PW_GRID| Grid distributed over                                    16 processors
 PW_GRID| Real space group dimensions                                    16    1
 PW_GRID| the grid is blocked:                                                NO
 PW_GRID| Cutoff [a.u.]                                                     66.7
 PW_GRID| spherical cutoff:                                                   NO
 PW_GRID|   Bounds   1            -50      49                Points:         100
 PW_GRID|   Bounds   2            -50      49                Points:         100
 PW_GRID|   Bounds   3            -50      49                Points:         100
 PW_GRID| Volume element (a.u.^3)  0.1852E-01     Volume (a.u.^3)     18517.4301
 PW_GRID| Grid span                                                    FULLSPACE
 PW_GRID|   Distribution                         Average         Max         Min
 PW_GRID|   G-Vectors                            62500.0       62600       62400
 PW_GRID|   G-Rays                                 625.0         626         624
 PW_GRID|   Real Space Points                    62500.0       70000       60000

 PW_GRID| Information for grid number                                          4
 PW_GRID| Number of the reference grid                                         2
 PW_GRID| Grid distributed over                                    16 processors
 PW_GRID| Real space group dimensions                                    16    1
 PW_GRID| the grid is blocked:                                                NO
 PW_GRID| Cutoff [a.u.]                                                     22.2
 PW_GRID| spherical cutoff:                                                   NO
 PW_GRID|   Bounds   1            -30      29                Points:          60
 PW_GRID|   Bounds   2            -30      29                Points:          60
 PW_GRID|   Bounds   3            -30      29                Points:          60
 PW_GRID| Volume element (a.u.^3)  0.8573E-01     Volume (a.u.^3)     18517.4301
 PW_GRID| Grid span                                                    FULLSPACE
 PW_GRID|   Distribution                         Average         Max         Min
 PW_GRID|   G-Vectors                            13500.0       13560       13440
 PW_GRID|   G-Rays                                 225.0         226         224
 PW_GRID|   Real Space Points                    13500.0       14400       10800

 PW_GRID| Information for grid number                                          5
 PW_GRID| Number of the reference grid                                         2
 PW_GRID| Grid distributed over                                    16 processors
 PW_GRID| Real space group dimensions                                    16    1
 PW_GRID| the grid is blocked:                                                NO
 PW_GRID| Cutoff [a.u.]                                                      7.4
 PW_GRID| spherical cutoff:                                                   NO
 PW_GRID|   Bounds   1            -18      17                Points:          36
 PW_GRID|   Bounds   2            -18      17                Points:          36
 PW_GRID|   Bounds   3            -18      17                Points:          36
 PW_GRID| Volume element (a.u.^3)  0.3969         Volume (a.u.^3)     18517.4301
 PW_GRID| Grid span                                                    FULLSPACE
 PW_GRID|   Distribution                         Average         Max         Min
 PW_GRID|   G-Vectors                             2916.0        2952        2880
 PW_GRID|   G-Rays                                  81.0          82          80
 PW_GRID|   Real Space Points                     2916.0        3888        2592

 POISSON| Solver                                          Martyna-Tuckerman (MT)
 POISSON| MT| Alpha                                                        7.000
 POISSON| MT| Relative cutoff                                                2.0
 POISSON| Periodicity                                                       NONE

 RS_GRID| Information for grid number                                          2
 RS_GRID|   Bounds   1            -90      89                Points:         180
 RS_GRID|   Bounds   2            -90      89                Points:         180
 RS_GRID|   Bounds   3            -90      89                Points:         180
 RS_GRID| Real space distribution over                                  4 groups
 RS_GRID| Real space distribution along direction                              2
 RS_GRID| Border size                                                         31
 RS_GRID| Real space distribution over                                  4 groups
 RS_GRID| Real space distribution along direction                              3
 RS_GRID| Border size                                                         31
 RS_GRID|   Distribution                         Average         Max         Min
 RS_GRID|   Planes                                 107.0         107         107
 RS_GRID|   Distribution                         Average         Max         Min
 RS_GRID|   Planes                                 107.0         107         107

 RS_GRID| Information for grid number                                          3
 RS_GRID|   Bounds   1            -50      49                Points:         100
 RS_GRID|   Bounds   2            -50      49                Points:         100
 RS_GRID|   Bounds   3            -50      49                Points:         100
 RS_GRID| Real space fully replicated
 RS_GRID| Group size                                                           1

 RS_GRID| Information for grid number                                          4
 RS_GRID|   Bounds   1            -30      29                Points:          60
 RS_GRID|   Bounds   2            -30      29                Points:          60
 RS_GRID|   Bounds   3            -30      29                Points:          60
 RS_GRID| Real space fully replicated
 RS_GRID| Group size                                                           1

 RS_GRID| Information for grid number                                          5
 RS_GRID|   Bounds   1            -18      17                Points:          36
 RS_GRID|   Bounds   2            -18      17                Points:          36
 RS_GRID|   Bounds   3            -18      17                Points:          36
 RS_GRID| Real space fully replicated
 RS_GRID| Group size                                                           1

  HFX_INFO| Replica ID:                                                        1
  HFX_INFO| FRACTION:                                               0.2000000000
  HFX_INFO| Interaction Potential:                                       COULOMB
  HFX_INFO| EPS_SCHWARZ:                                                 1.0E-10
  HFX_INFO| EPS_SCHWARZ_FORCES                                           1.0E-08
  HFX_INFO| EPS_STORAGE_SCALING:                                         1.0E+00
  HFX_INFO| NBINS:                                                            64
  HFX_INFO| BLOCK_SIZE:                                                        1
  HFX_INFO| Number of periodic shells considered:                           NONE
  HFX_INFO| Number of periodic cells considered:                            NONE


 Number of electrons:                                                         42
 Number of occupied orbitals:                                                 21
 Number of molecular orbitals:                                                21

 Number of orbital functions:                                                210
 Number of independent orbital functions:                                    210

 Extrapolation method: initial_guess


 SCF WAVEFUNCTION OPTIMIZATION

  ----------------------------------- OT ---------------------------------------
  Minimizer      : DIIS                : direct inversion
                                         in the iterative subspace
                                         using   7 DIIS vectors
                                         safer DIIS on
  Preconditioner : FULL_ALL            : diagonalization, state selective
  Precond_solver : DEFAULT
  stepsize       :    0.15000000                  energy_gap     :    0.08000000
  eps_taylor     :   0.10000E-15                  max_taylor     :             4
  ----------------------------------- OT ---------------------------------------

  Step     Update method      Time    Convergence         Total energy    Change
  ------------------------------------------------------------------------------

  HFX_MEM_INFO| Est. max. program size before HFX [MiB]:                     641
  HFX_MEM_INFO| Number of cart. primitive ERI's calculated:           1718002719
  HFX_MEM_INFO| Number of sph. ERI's calculated:                       315872992
  HFX_MEM_INFO| Number of sph. ERI's stored in-core:                   315872992
  HFX_MEM_INFO| Number of sph. ERI's stored on disk:                           0
  HFX_MEM_INFO| Number of sph. ERI's calculated on the fly:                    0
  HFX_MEM_INFO| Total memory consumption ERI's RAM [MiB]:                    937
  HFX_MEM_INFO| Whereof max-vals [MiB]:                                        5
  HFX_MEM_INFO| Total compression factor ERI's RAM:                         2.57
  HFX_MEM_INFO| Total memory consumption ERI's disk [MiB]:                     0
  HFX_MEM_INFO| Total compression factor ERI's disk:                        0.00
  HFX_MEM_INFO| Size of density/Fock matrix [MiB]:                             0
  HFX_MEM_INFO| Size of buffers [MiB]:                                         0
  HFX_MEM_INFO| Est. max. program size after HFX  [MiB]:                     699

     1 OT DIIS     0.15E+00    5.8     0.01656751      -263.9746798491 -2.64E+02
     2 OT DIIS     0.15E+00    1.0     0.00732296      -264.1039361929 -1.29E-01
     3 OT DIIS     0.15E+00    1.0     0.00246062      -264.1340668421 -3.01E-02
     4 OT DIIS     0.15E+00    1.0     0.00064647      -264.1353615508 -1.29E-03
     5 OT DIIS     0.15E+00    1.0     0.00036426      -264.1354931458 -1.32E-04
     6 OT DIIS     0.15E+00    1.0     0.00013553      -264.1355295805 -3.64E-05
     7 OT DIIS     0.15E+00    1.0     0.00005553      -264.1355383738 -8.79E-06
     8 OT DIIS     0.15E+00    1.0     0.00002591      -264.1355397008 -1.33E-06
     9 OT DIIS     0.15E+00    1.0     0.00000885      -264.1355399265 -2.26E-07
    10 OT DIIS     0.15E+00    1.0     0.00000304      -264.1355399565 -2.99E-08
    11 OT DIIS     0.15E+00    1.0     0.00000114      -264.1355399610 -4.51E-09
    12 OT DIIS     0.15E+00    1.0     0.00000048      -264.1355399615 -4.98E-10
    13 OT DIIS     0.15E+00    1.0     0.00000024      -264.1355399615 -7.03E-11
    14 OT DIIS     0.15E+00    1.0     0.00000011      -264.1355399615 -1.39E-11
    15 OT DIIS     0.15E+00    1.0     0.00000005      -264.1355399615 -6.25E-12
    16 OT DIIS     0.15E+00    1.0     0.00000002      -264.1355399615  2.73E-12
    17 OT DIIS     0.15E+00    1.0     0.00000001      -264.1355399615  4.72E-12
    18 OT DIIS     0.15E+00    1.0     7.2585E-09      -264.1355399615 -2.10E-12

  *** SCF run converged in    18 steps ***


  Electronic density on regular grids:        -30.6419161048       11.3580838952
  Core density on regular grids:               42.0000000000       -0.0000000000
  Hard and soft densities (Lebedev):          -97.4904695200      -86.1323856238
  Total Rho_soft + Rho1_hard - Rho1_soft      -42.0000000010
  Total charge density (r-space):              -0.0000000010
  Total Rho_soft + Rho0_soft (g-space):        -0.0000000267

  Overlap energy of the core charge distribution:               0.00001958358723
  Self energy of the core charge distribution:               -217.69203579805162
  Core Hamiltonian energy:                                    -41.71558110313049
  Hartree energy:                                             109.62390407016206
  Exchange-correlation energy:                                -11.22192826720565
  Hartree-Fock Exchange energy:                                -7.05749679953940
  Dispersion energy:                                           -0.00386663936804

  GAPW| Exc from hard and soft atomic rho1:                   -18.55676063000541
  GAPW| local Eh = 1 center integrals:                        -77.51179437799225

  Total energy:                                              -264.13553996154360

  outer SCF iter =    1 RMS gradient =   0.73E-08 energy =       -264.1355399615
  outer SCF loop converged in   1 iterations or   18 steps


 !-----------------------------------------------------------------------------!
                     Mulliken Population Analysis

 #  Atom  Element  Kind  Atomic population                           Net charge
       1     n        1          7.143098                             -0.143098
       2     n        1          7.102140                             -0.102140
       3     c        2          6.086677                             -0.086677
       4     c        2          6.087527                             -0.087527
       5     c        2          6.011035                             -0.011035
       6     c        2          6.058922                             -0.058922
       7     h        3          0.883638                              0.116362
       8     h        3          0.858359                              0.141641
       9     h        3          0.886164                              0.113836
      10     h        3          0.882441                              0.117559
 # Total charge                             42.000000                  0.000000

 !-----------------------------------------------------------------------------!

 !-----------------------------------------------------------------------------!
                           Hirshfeld Charges

  #Atom  Element  Kind  Ref Charge     Population                    Net charge
      1       n      1       7.000          7.266                        -0.266
      2       n      1       7.000          7.289                        -0.289
      3       c      2       6.000          6.345                        -0.345
      4       c      2       6.000          6.338                        -0.338
      5       c      2       6.000          6.355                        -0.355
      6       c      2       6.000          6.358                        -0.358
      7       h      3       1.000          0.513                         0.487
      8       h      3       1.000          0.505                         0.495
      9       h      3       1.000          0.505                         0.495
     10       h      3       1.000          0.513                         0.487

  Total Charge                                                            0.013
 !-----------------------------------------------------------------------------!

 *******************************************************************************
 **                                                                           **
 **         ######## #######   #######   ######## #######  ########           **
 **            ##    ##     ## ##     ## ##       ##   ##     ##              **
 **            ##    ##     ## ##     ## ######   #######     ##              **
 **            ##    ##     ## ##     ## ##       ##          ##              **
 **            ##    #######   #######   ##       ##          ##              **
 **                                                                           **
 *******************************************************************************
 KERNEL|                                                                    FULL
 FUNCTIONAL| BECKE88:
 FUNCTIONAL| A. Becke, Phys. Rev. A 38, 3098 (1988) {LDA version}               
 FUNCTIONAL| LYP:
 FUNCTIONAL| C. Lee, W. Yang, R.G. Parr, Phys. Rev. B, 37, 785 (1988) {LDA versi
 FUNCTIONAL| on}                                                                
 FUNCTIONAL| VWN:
 FUNCTIONAL| S. H. Vosko, L. Wilk and M. Nusair, Can. J. Phys. 58, 1200 (1980) {
 FUNCTIONAL| LDA version}                                                       
 FUNCTIONAL| XALPHA:
 FUNCTIONAL| Dirac/Slater local exchange; parameter=  0.666 {LDA}               
 KERNEL|                                                          Exact Exchange
 KERNEL| Spin symmetry of excitations                                    Singlet
 TDDFPT| Number of states calculated                                           9
 TDDFPT| Number of Davidson iterations                                       100
 TDDFPT| Davidson iteration convergence                                0.367E-09
 TDDFPT| Max. number of Krylov space vectors                                5000
 TDDFPT| Molecular Orbitals:        Spin       AOs       Occ      Virt     Total
 TDDFPT|                               1       210        21       189       210
 
 -------------------------------------------------------------------------------
 -                            TDDFPT Initial Guess                             -
 -------------------------------------------------------------------------------
          State         Occupied      ->      Virtual          Excitation
          number         orbital              orbital          energy (eV)
 -------------------------------------------------------------------------------
             1               21                   22              3.52964
             2               21                   23              4.56841
             3               20                   22              5.20577
             4               19                   22              5.86328
             5               20                   23              6.24454
             6               19                   23              6.90205
             7               21                   24              7.01618
             8               21                   25              7.29969
             9               21                   26              7.44224

      Number of active states:                                       3969
 -------------------------------------------------------------------------------
 
 -------------------------------------------------------------------------------
 -                      TDDFPT WAVEFUNCTION OPTIMIZATION                       -
 -------------------------------------------------------------------------------

          Step            Time         Convergence           Conv. states
 -------------------------------------------------------------------------------

    State    Exc. energy (eV)      Convergence (eV)
        1       2.2358975            -1.2937E+00
        2       3.2763384            -1.2921E+00
        3       4.6323158            -5.7345E-01
        4       5.3536142            -5.0967E-01
        5       6.2060533            -3.8486E-02
        6       6.3594577            -5.4259E-01
        7       6.4178162            -5.9836E-01
        8       7.3313910             3.1703E-02
        9       7.7867899             3.4455E-01

             1            10.6          4.7544E-02                      0

    State    Exc. energy (eV)      Convergence (eV)
        1       2.1727152            -6.3182E-02
        2       3.2293299            -4.7009E-02
        3       4.4709237            -1.6139E-01
        4       5.2090156            -1.4460E-01
        5       5.6638681            -5.4219E-01
        6       5.8712473            -4.8821E-01
        7       6.1953235            -2.2249E-01
        8       6.4024363            -9.2895E-01
        9       6.4742110            -1.3126E+00

             2            10.6          4.8236E-02                      0

    State    Exc. energy (eV)      Convergence (eV)
        1       2.1677979            -4.9173E-03
        2       3.2276072            -1.7227E-03
        3       4.4607016            -1.0222E-02
        4       5.1981826            -1.0833E-02
        5       5.5984511            -6.5417E-02
        6       5.7660357            -1.0521E-01
        7       6.1785952            -1.6728E-02
        8       6.3117567            -9.0680E-02
        9       6.4655826            -8.6284E-03

             3            10.5          3.8665E-03                      0

    State    Exc. energy (eV)      Convergence (eV)
        1       2.1677413            -5.6642E-05
        2       3.2275462            -6.0925E-05
        3       4.4602063            -4.9533E-04
        4       5.1975890            -5.9358E-04
        5       5.5945900            -3.8610E-03
        6       5.7636482            -2.3876E-03
        7       6.1775311            -1.0641E-03
        8       6.3077717            -3.9850E-03
        9       6.4647786            -8.0397E-04

             4            10.5          1.4645E-04                      0

    State    Exc. energy (eV)      Convergence (eV)
        1       2.1677407            -5.9120E-07
        2       3.2275452            -1.0228E-06
        3       4.4602002            -6.0810E-06
        4       5.1975729            -1.6192E-05
        5       5.5944884            -1.0162E-04
        6       5.7635995            -4.8701E-05
        7       6.1774927            -3.8471E-05
        8       6.3075857            -1.8606E-04
        9       6.4646468            -1.3187E-04

             5            10.5          6.8377E-06                      0

    State    Exc. energy (eV)      Convergence (eV)
        1       2.1677407            -6.2613E-09
        2       3.2275452            -1.2493E-08
        3       4.4602002            -6.1623E-08
        4       5.1975726            -2.6842E-07
        5       5.5944869            -1.4968E-06
        6       5.7635983            -1.1857E-06
        7       6.1774917            -9.5592E-07
        8       6.3075789            -6.7499E-06
        9       6.4646374            -9.3758E-06

             6            10.5          3.4455E-07                      1

    State    Exc. energy (eV)      Convergence (eV)
        1       2.1677407            -5.0169E-11
        2       3.2275452            -8.8397E-11
        3       4.4602002            -6.0766E-10
        4       5.1975726            -2.9237E-09
        5       5.5944869            -2.7227E-08
        6       5.7635983            -3.3604E-08
        7       6.1774917            -2.7006E-08
        8       6.3075788            -1.5668E-07
        9       6.4646371            -2.7219E-07

             7            10.5          1.0003E-08                      4

    State    Exc. energy (eV)      Convergence (eV)
        1       2.1677407            -3.5800E-13
        2       3.2275452            -6.3442E-13
        3       4.4602002            -7.4417E-12
        4       5.1975726            -4.7824E-11
        5       5.5944869            -5.4319E-10
        6       5.7635983            -8.4473E-10
        7       6.1774917            -7.5739E-10
        8       6.3075788            -2.5599E-09
        9       6.4646371            -4.8395E-09

             8            10.5          1.7785E-10                      9
 ------------------------- Restart Davidson iterations -------------------------

    State    Exc. energy (eV)      Convergence (eV)
        1       2.1677407            -6.0421E-15
        2       3.2275452             1.1329E-14
        3       4.4602002             3.7763E-15
        4       5.1975726             4.5316E-15
        5       5.5944869             3.7763E-15
        6       5.7635983             3.7763E-15
        7       6.1774917             3.3987E-14
        8       6.3075788            -3.5498E-14
        9       6.4646371             6.7974E-15

             9            10.5          1.3045E-15                      9
 
 -------------------------------------------------------------------------------
 -  TDDFPT run converged in 9 iteration(s) 
 -------------------------------------------------------------------------------

 R-TDDFPT states of multiplicity 1
 Transition dipoles calculated using length formulation

         State    Excitation        Transition dipole (a.u.)        Oscillator
         number   energy (eV)       x           y           z     strength (a.u.)
         ------------------------------------------------------------------------
 TDDFPT|      1       2.16774   2.2800E-02  7.6107E-02 -1.7241E-01   1.91385E-03
 TDDFPT|      2       3.22755  -1.2242E-01 -5.2663E-02 -1.4344E-01   3.03142E-03
 TDDFPT|      3       4.46020   5.1445E-03  3.5858E-01  1.5914E-01   1.68203E-02
 TDDFPT|      4       5.19757  -1.8526E-02  7.1639E-02 -3.5094E-01   1.63801E-02
 TDDFPT|      5       5.59449  -2.4752E-01  9.7365E-01  2.5672E-01   1.47366E-01
 TDDFPT|      6       5.76360  -6.9621E-02  4.3443E-01 -4.1460E-01   5.16063E-02
 TDDFPT|      7       6.17749  -4.1903E-02 -1.0739E-01 -2.3463E-01   1.03428E-02
 TDDFPT|      8       6.30758   5.0880E-02 -5.3008E-01  6.1397E-02   4.44037E-02
 TDDFPT|      9       6.46464  -8.2968E-02  3.5316E-02  9.7879E-01   1.53022E-01

 TDDFPT : CheckSum  =  0.576719E+00
 
 -------------------------------------------------------------------------------
 -                            Excitation analysis                              -
 -------------------------------------------------------------------------------
        State             Occupied              Virtual             Excitation
        number             orbital              orbital             amplitude
 -------------------------------------------------------------------------------
             1   2.16774 eV
                                21                   22              -0.997371
             2   3.22755 eV
                                21                   23               0.993686
                                20                   22              -0.062777
             3   4.46020 eV
                                19                   22              -0.857525
                                20                   22              -0.483858
                                18                   23               0.090610
                                20                   23              -0.079682
             4   5.19757 eV
                                20                   23              -0.728808
                                19                   23              -0.626464
                                21                   26               0.190266
                                18                   22              -0.132529
                                21                   25               0.084675
                                21                   29               0.056246
             5   5.59449 eV
                                20                   22              -0.744783
                                19                   22               0.439830
                                21                   26               0.199548
                                20                   23               0.198910
                                19                   23              -0.198010
                                21                   24              -0.124537
                                21                   30              -0.121089
                                21                   28              -0.114071
                                21                   25              -0.095944
                                20                   26               0.079049
                                18                   23               0.072211
                                21                   23              -0.067307
                                21                   35              -0.064412
                                21                   27              -0.059800
                                18                   22               0.059777
                                21                   29               0.057834
                                21                   32              -0.052864
             6   5.76360 eV
                                19                   23               0.650061
                                18                   22              -0.524905
                                20                   23              -0.450917
                                20                   22              -0.208717
                                19                   22               0.178914
                                21                   25               0.093230
             7   6.17749 eV
                                21                   24              -0.741472
                                21                   26              -0.632011
                                19                   23              -0.145334
                                18                   22              -0.124806
                                17                   22              -0.062211
             8   6.30758 eV
                                21                   26               0.650236
                                21                   24              -0.630508
                                21                   25               0.254158
                                19                   23               0.163447
                                20                   22               0.150351
                                18                   22               0.130875
                                21                   27               0.110977
                                21                   29               0.064738
                                18                   23              -0.058540
                                17                   22               0.050030
             9   6.46464 eV
                                21                   25               0.927458
                                21                   26              -0.218951
                                18                   22               0.192455
                                21                   24               0.140429
                                20                   22              -0.108585
                                21                   28              -0.089683
 -------------------------------------------------------------------------------
 
 -------------------------------------------------------------------------------
 -                            Natural Orbital analysis                         -
 -------------------------------------------------------------------------------
   STATE NR.      1             2.16774 eV
     Particle-Hole state: 1   Spin:1     Eigenvalue: 0.99668   Sum Eigv: 0.99668
   STATE NR.      2             3.22755 eV
     Particle-Hole state: 1   Spin:1     Eigenvalue: 0.99038   Sum Eigv: 0.99038
   STATE NR.      3             4.46020 eV
     Particle-Hole state: 1   Spin:1     Eigenvalue: 0.97306   Sum Eigv: 0.97306
     Particle-Hole state: 2   Spin:1     Eigenvalue: 0.01838   Sum Eigv: 0.99144
   STATE NR.      4             5.19757 eV
     Particle-Hole state: 1   Spin:1     Eigenvalue: 0.92943   Sum Eigv: 0.92943
     Particle-Hole state: 2   Spin:1     Eigenvalue: 0.05031   Sum Eigv: 0.97975
   STATE NR.      5             5.59449 eV
     Particle-Hole state: 1   Spin:1     Eigenvalue: 0.83394   Sum Eigv: 0.83394
     Particle-Hole state: 2   Spin:1     Eigenvalue: 0.12249   Sum Eigv: 0.95643
     Particle-Hole state: 3   Spin:1     Eigenvalue: 0.02211   Sum Eigv: 0.97855
   STATE NR.      6             5.76360 eV
     Particle-Hole state: 1   Spin:1     Eigenvalue: 0.72872   Sum Eigv: 0.72872
     Particle-Hole state: 2   Spin:1     Eigenvalue: 0.25220   Sum Eigv: 0.98092
   STATE NR.      7             6.17749 eV
     Particle-Hole state: 1   Spin:1     Eigenvalue: 0.95265   Sum Eigv: 0.95265
     Particle-Hole state: 2   Spin:1     Eigenvalue: 0.02703   Sum Eigv: 0.97968
   STATE NR.      8             6.30758 eV
     Particle-Hole state: 1   Spin:1     Eigenvalue: 0.91124   Sum Eigv: 0.91124
     Particle-Hole state: 2   Spin:1     Eigenvalue: 0.05257   Sum Eigv: 0.96382
     Particle-Hole state: 3   Spin:1     Eigenvalue: 0.03142   Sum Eigv: 0.99524
   STATE NR.      9             6.46464 eV
     Particle-Hole state: 1   Spin:1     Eigenvalue: 0.93972   Sum Eigv: 0.93972
     Particle-Hole state: 2   Spin:1     Eigenvalue: 0.05163   Sum Eigv: 0.99135
 -------------------------------------------------------------------------------
 Ground state orbital alignment:         1.000000[MinVal]      1.000000[Average]
 Excitation vector alignment:                                           1.000000
 Calculate properties for state:   1      with excitation energy      2.16774 eV

  HFX_MEM_INFO| Number of cart. primitive DERIV's calculated:        10844933568
  HFX_MEM_INFO| Number of sph. DERIV's calculated:                    2796953532
  HFX_MEM_INFO| Number of sph. DERIV's stored in-core:                         0
  HFX_MEM_INFO| Number of sph. DERIV's calculated on the fly:         2796953532
  HFX_MEM_INFO| Total memory consumption DERIV's RAM [MiB]:                    0
  HFX_MEM_INFO| Whereof max-vals [MiB]:                                        1
  HFX_MEM_INFO| Total compression factor DERIV's RAM:                       0.00

 !--------------------------- Excited State Energy ----------------------------!
 Results for Excited State Nr.                                                 1
 Excitation Energy [Hartree]                                        0.0796630074
 Total Energy [Hartree]                                          -264.0558769542
 !-----------------------------------------------------------------------------!

  HFX_MEM_INFO| Number of cart. primitive DERIV's calculated:        13558987572
  HFX_MEM_INFO| Number of sph. DERIV's calculated:                    3155752680
  HFX_MEM_INFO| Number of sph. DERIV's stored in-core:                         0
  HFX_MEM_INFO| Number of sph. DERIV's calculated on the fly:         3155752680
  HFX_MEM_INFO| Total memory consumption DERIV's RAM [MiB]:                    0
  HFX_MEM_INFO| Whereof max-vals [MiB]:                                        1
  HFX_MEM_INFO| Total compression factor DERIV's RAM:                       0.00

[...]
 # MPI messages exchanged                  132192
 MPI messages size (bytes):
  total size                       972.711936E+06
  min size                           0.000000E+00
  max size                          31.744000E+03
  average size                       7.358327E+03
 MPI breakdown and total messages size (bytes):
             size <=      128               75588                        0
       128 < size <=     8192               10764                 73279584
      8192 < size <=    32768               45840                899432352
     32768 < size <=   131072                   0                        0
    131072 < size <=  4194304                   0                        0
   4194304 < size <= 16777216                   0                        0
  16777216 < size                               0                        0
 -------------------------------------------------------------------------------
 -                                                                             -
 -                      DBCSR MESSAGE PASSING PERFORMANCE                      -
 -                                                                             -
 -------------------------------------------------------------------------------
 ROUTINE             CALLS      AVE VOLUME [Bytes]
 MP_Bcast               28                     12.
 MP_Allreduce         6015                      8.
 MP_Alltoall         21925                   2747.
 MP_ISend            22028                   3493.
 MP_IRecv            22028                   3200.
 -------------------------------------------------------------------------------

 -------------------------------------------------------------------------------
 -                                                                             -
 -                                DBM STATISTICS                               -
 -                                                                             -
 -------------------------------------------------------------------------------
    M  x    N  x    K                                          COUNT     PERCENT
 -------------------------------------------------------------------------------

 -------------------------------------------------------------------------------
 -                                                                             -
 -                                GRID STATISTICS                              -
 -                                                                             -
 -------------------------------------------------------------------------------
 LP    KERNEL             BACKEND                              COUNT     PERCENT
 1     collocate ortho    CPU                                 229516      15.92%
 2     collocate ortho    CPU                                 186788      12.96%
 1     integrate ortho    CPU                                 177462      12.31%
 0     collocate ortho    CPU                                 159152      11.04%
 2     integrate ortho    CPU                                 148506      10.30%
 3     collocate ortho    CPU                                 125636       8.72%
 0     integrate ortho    CPU                                 118552       8.23%
 3     integrate ortho    CPU                                 101210       7.02%
 4     collocate ortho    CPU                                  54096       3.75%
 4     integrate ortho    CPU                                  45424       3.15%
 4     collocate general  CPU                                  19008       1.32%
 5     collocate ortho    CPU                                  16464       1.14%
 5     integrate ortho    CPU                                  14472       1.00%
 4     integrate general  CPU                                  14016       0.97%
 2     collocate general  CPU                                  12672       0.88%
 2     integrate general  CPU                                   9344       0.65%
 6     collocate ortho    CPU                                   4116       0.29%
 6     integrate ortho    CPU                                   3738       0.26%
 5     integrate general  CPU                                    384       0.03%
 3     integrate general  CPU                                    256       0.02%
 7     integrate ortho    CPU                                    168       0.01%
 0     collocate general  CPU                                    160       0.01%
 0     integrate general  CPU                                    160       0.01%
 -------------------------------------------------------------------------------

 MEMORY| Estimated peak process memory [MiB]                                1278

 -------------------------------------------------------------------------------
 ----                             MULTIGRID INFO                            ----
 -------------------------------------------------------------------------------
 count for grid        1:         109544          cutoff [a.u.]          200.00
 count for grid        2:          22505          cutoff [a.u.]           66.67
 count for grid        3:           8627          cutoff [a.u.]           22.22
 count for grid        4:           1858          cutoff [a.u.]            7.41
 total gridlevel count  :         142534

 -------------------------------------------------------------------------------
 -                                                                             -
 -                         MESSAGE PASSING PERFORMANCE                         -
 -                                                                             -
 -------------------------------------------------------------------------------

 ROUTINE             CALLS      AVE VOLUME [Bytes]
 MP_Group                5
 MP_Bcast             4627                1012533.
 MP_Allreduce        12738                 149717.
 MP_Sync              1227
 MP_Alltoall          3884               15096036.
 MP_SendRecv          8880                 233845.
 MP_ISendRecv        14025                 127814.
 MP_Wait             30297
 MP_comm_split          49
 MP_ISend            14007                 822505.
 MP_IRecv            14174                 812403.
 -------------------------------------------------------------------------------


 -------------------------------------------------------------------------------
 -                                                                             -
 -                           R E F E R E N C E S                               -
 -                                                                             -
 -------------------------------------------------------------------------------
 
 CP2K version 2024.1 (Development Version), the CP2K developers group (2024).
 CP2K is freely available from https://www.cp2k.org/ .

 Kuehne,Thomas D.; Iannuzzi,Marcella; Del Ben,Mauro;
 Rybkin,Vladimir V.; Seewald,Patrick; Stein,Frederick; Laino,Teodoro;
 Khaliullin,Rustam Z.; Schuett,Ole; Schiffmann,Florian; Golze,Dorothea;
 Wilhelm,Jan; Chulkov,Sergey; Bani-Hashemian,Mohammad Hossein;
 Weber,Valery; Borstnik,Urban; Taillefumier,Mathieu;
 Jakobovits,Alice Shoshana; Lazzaro,Alfio; Pabst,Hans; Mueller,Tiziano;
 Schade,Robert; Guidon,Manuel; Andermatt,Samuel; Holmberg,Nico;
 Schenter,Gregory K.; Hehn,Anna; Bussy,Augustin; Belleflamme,Fabian;
 Tabacchi,Gloria; Gloess,Andreas; Lass,Michael; Bethune,Iain;
 Mundy,Christopher J.; Plessl,Christian; Watkins,Matt;
 VandeVondele,Joost; Krack,Matthias; Hutter,Juerg. 
 The Journal of Chemical Physics, 152 (19), (2020). 
 CP2K: An electronic structure and molecular dynamics software package -
 Quickstep: Efficient and accurate electronic structure calculations.
 https://doi.org/10.1063/5.0007045

 Goerigk, Lars; Hansen, Andreas; Bauer, Christoph; Ehrlich, Stephan;
 Najibi, Asim; Grimme, Stefan. , 19 (48), (2017). 
 A look at the density functional theory zoo with the advanced GMTKN55 database
 for general main group thermochemistry, kinetics and noncovalent interactions.
 https://doi.org/10.1039/C7CP04913G

 Schuett, Ole; Messmer, Peter; Hutter, Juerg; VandeVondele, Joost. 
 Electronic Structure Calculations on Graphics Processing Units, John
 Wiley & Sons, Ltd, 173-190 (2016). 
 GPU-Accelerated Sparse Matrix-Matrix Multiplication for
 Linear Scaling Density Functional Theory.
 https://doi.org/10.1002/9781118670712.ch8

 Heinecke, A; Henry, G; Hutchinson, M; Pabst, H. 
 Proceedings of Intl. Supercomputing Conference, 981-991 (2016). 
 LIBXSMM: Accelerating Small Matrix Multiplications
 by Runtime Code Generation.
 https://doi.org/10.1109/SC.2016.83

 Borstnik, U; VandeVondele, J; Weber, V; Hutter, J. 
 PARALLEL COMPUTING, 40 (5-6), 47-58 (2014). 
 Sparse matrix multiplication: The distributed block-compressed sparse
 row library.
 https://doi.org/10.1016/j.parco.2014.03.012

 Hutter, J; Iannuzzi, M; Schiffmann, F; VandeVondele, J. 
 WIREs Comput Mol Sci., 4 (1), 15-25 (2014). 
 CP2K: atomistic simulations of condensed matter systems.
 https://doi.org/10.1002/wcms.1159

 Grimme, S; Ehrlich, S; Goerigk, L. 
 JOURNAL OF COMPUTATIONAL CHEMISTRY, 32, 1456 (2011). 
 Effect of the damping function in dispersion corrected density functional theory.
 https://doi.org/10.1002/jcc.21759

 Grimme, S; Antony, J; Ehrlich, S; Krieg, H. 
 JOURNAL OF CHEMICAL PHYSICS, 132 (15), 154104 (2010). 
 A consistent and accurate ab initio parametrization of density
 functional dispersion correction (DFT-D) for the 94 elements H-Pu.
 https://doi.org/10.1063/1.3382344

 Guidon, M; Hutter, J; VandeVondele, J. 
 JOURNAL OF CHEMICAL THEORY AND COMPUTATION, 5 (11), 3010-3021 (2009). 
 Robust Periodic Hartree-Fock Exchange for Large-Scale Simulations Using
 Gaussian Basis Sets.
 https://doi.org/10.1021/ct900494g

 Guidon, M; Schiffmann, F; Hutter, J; VandeVondele, J. 
 JOURNAL OF CHEMICAL PHYSICS, 128 (21), 214104 (2008). 
 Ab initio molecular dynamics using hybrid density functionals.
 https://doi.org/10.1063/1.2931945

 VandeVondele, J; Hutter, J. 
 JOURNAL OF CHEMICAL PHYSICS, 127 (11), 114105 (2007). 
 Gaussian basis sets for accurate calculations on molecular systems in
 gas and condensed phases.
 https://doi.org/10.1063/1.2770708

 Frigo, M; Johnson, SG. 
 PROCEEDINGS OF THE IEEE, 93 (2), 216-231 (2005). 
 The design and implementation of FFTW3.
 https://doi.org/10.1109/JPROC.2004.840301

 Iannuzzi, M; Chassaing, T; Wallman, T; Hutter, J. 
 CHIMIA, 59 (7-8), 499-503 (2005). 
 Ground and excited state density functional calculations with the
 Gaussian and augmented-plane-wave method.
 https://doi.org/10.2533/000942905777676164

 VandeVondele, J; Hutter, J. 
 JOURNAL OF CHEMICAL PHYSICS, 118 (10), 4365-4369 (2003). 
 An efficient orbital transformation method for electronic structure
 calculations.
 https://doi.org/10.1063/1.1543154

 Martin,Richard L.. 
 The Journal of Chemical Physics, 118 (11), 4775-4777 (2003). 
 Natural transition orbitals.
 https://doi.org/10.1063/1.1558471

 Lippert, G; Hutter, J; Parrinello, M. 
 THEORETICAL CHEMISTRY ACCOUNTS, 103 (2), 124-140 (1999). 
 The Gaussian and augmented-plane-wave density functional method for ab
 initio molecular dynamics simulations.
 https://doi.org/10.1007/s002140050523

 Krack, M; Parrinello, M. 
 PHYSICAL CHEMISTRY CHEMICAL PHYSICS, 2 (10), 2105-2112 (2000). 
 All-electron ab-initio molecular dynamics.
 https://doi.org/10.1039/b001167n

 Martyna, GJ; Tuckerman, ME. 
 JOURNAL OF CHEMICAL PHYSICS, 110 (6), 2810-2821 (1999). 
 A reciprocal space based method for treating long range interactions in
 ab initio and force-field-based calculations in clusters.
 https://doi.org/10.1063/1.477923

 BECKE, AD. PHYSICAL REVIEW A, 38 (6), 3098-3100 (1988). 
 DENSITY-FUNCTIONAL EXCHANGE-ENERGY APPROXIMATION WITH CORRECT
 ASYMPTOTIC-BEHAVIOR.
 https://doi.org/10.1103/PhysRevA.38.3098

 LEE, CT; YANG, WT; PARR, RG. 
 PHYSICAL REVIEW B, 37 (2), 785-789 (1988). 
 DEVELOPMENT OF THE COLLE-SALVETTI CORRELATION-ENERGY FORMULA INTO A
 FUNCTIONAL OF THE ELECTRON-DENSITY.
 https://doi.org/10.1103/PhysRevB.37.785

 VOSKO, SH; WILK, L; NUSAIR, M. 
 CANADIAN JOURNAL OF PHYSICS, 58 (8), 1200-1211 (1980). 
 ACCURATE SPIN-DEPENDENT ELECTRON LIQUID CORRELATION ENERGIES FOR LOCAL
 SPIN-DENSITY CALCULATIONS - A CRITICAL ANALYSIS.
 https://doi.org/10.1139/p80-159


 -------------------------------------------------------------------------------
 -                                                                             -
 -                                T I M I N G                                  -
 -                                                                             -
 -------------------------------------------------------------------------------
 SUBROUTINE                       CALLS  ASD         SELF TIME        TOTAL TIME
                                MAXIMUM       AVERAGE  MAXIMUM  AVERAGE  MAXIMUM
 CP2K                                 1  1.0    0.012    0.016  254.019  254.019
 qs_forces                            1  2.0    0.001    0.001  253.020  253.020
 qs_energies                          1  3.0    0.000    0.000  153.155  153.156
 qs_energies_properties               1  4.0    0.000    0.000  129.743  129.744
 tddfpt                               1  5.0    0.000    0.000  129.743  129.744
 tddfpt_energies                      1  6.0    0.000    0.000   95.225   95.225
 tddfpt_davidson_solver               2  7.0    0.002    0.003   94.482   94.483
 tddfpt_compute_Aop_evects            9  8.0    0.000    0.000   94.214   94.214
 excited_state_energy                 2  3.5    0.001    0.001   87.028   87.028
 fft_wrap_pw1pw2                   3514 12.1    0.038    0.045   68.617   73.139
 fft_wrap_pw1pw2_200               2463 13.4    2.058    2.121   66.490   71.007
 response_equation                    1  4.0    0.000    0.000   65.696   65.697
 linres_solver                        1  5.0    0.001    0.004   65.662   65.662
 apply_op                            46  6.0    0.001    0.002   65.584   65.584
 fhxc_kernel                          9  9.0    0.003    0.003   59.878   59.878
 fft3d_ps                          3514 14.1   28.080   30.087   50.552   55.024
 integrate_four_center              230 10.5    0.050    0.051   53.061   53.072
 integrate_four_center_main         230 11.5    0.020    0.027   48.272   49.934
 integrate_four_center_bin        21850 12.5   48.252   49.918   48.252   49.918
 derivatives_four_center              4  8.5    0.004    0.006   48.998   49.593
 derivatives_four_center_main         4  9.5    0.000    0.001   48.909   49.505
 derivatives_four_center_bin        418 10.5   47.314   48.657   47.314   48.657
 xc_pw_derive                      1284 12.4    0.011    0.012   38.347   40.525
 apply_op_2_dft                      45  7.0    0.003    0.003   38.433   38.513
 tddfpt_forces_main                   1  6.0    0.000    0.000   34.437   34.437
 tddfpt_apply_hfx                     9  9.0    0.001    0.001   34.247   34.247
 tddft_hfx_matrix                   162 10.0    0.004    0.004   33.911   33.911
 rebuild_ks_matrix                   19  6.8    0.000    0.000   33.648   33.648
 qs_ks_build_kohn_sham_matrix        19  7.8    0.003    0.003   33.648   33.648
 tddfpt_forces                        1  7.0    0.000    0.000   33.116   33.117
 prepare_gapw_den                   202  8.6    0.005    0.006   32.381   32.571
 tddfpt_force_direct                  1  8.0    0.000    0.000   32.507   32.507
 tddfpt_kernel_force                  1  9.0    0.000    0.000   32.498   32.498
 fhxc_force                           1 10.0    0.001    0.001   32.498   32.498
 xc_pw_divergence                   190 12.3    0.005    0.005   23.265   25.555
 scf_env_do_scf                       1  4.0    0.000    0.000   23.205   23.205
 calculate_rho_elec                 196  9.3    0.322    0.343   21.661   21.665
 qs_rho_update_rho_low              191  8.4    0.002    0.002   21.584   21.586
 qs_fxc_analytic                     46  8.0    0.002    0.002   21.267   21.372
 response_force                       1  4.0    0.005    0.007   21.330   21.330
 qs_ks_update_qs_env                 20  6.0    0.000    0.000   20.870   20.871
 hfx_ks_matrix                       19  8.8    0.001    0.001   20.656   20.656
 xc_rho_set_and_dset_create         110 12.0    2.003    2.309   16.826   20.195
 tddfpt_apply_xc_analytic            81 10.0    0.952    1.041   18.826   18.935
 calculate_rho0_atom                594  9.6   17.770   18.853   17.770   18.853
 density_rs2pw                      196 10.3    0.008    0.008   16.881   17.721
 mp_alltoall_z22v                  3514 16.1   12.700   17.534   12.700   17.534
 scf_env_do_scf_inner_loop           18  5.0    0.000    0.001   17.443   17.443
 qs_vxc_create                       62 11.7    0.001    0.001   17.301   17.310
 xc_vxc_pw_create                    62 12.7    0.178    0.190   17.300   17.309
 yz_to_x                           1801 15.1    3.985    4.402   12.575   17.151
 xc_calc_2nd_deriv_analytical       672 11.0    1.407    1.568   16.771   17.003
 integrate_v_rspace                 154  9.3    0.003    0.003   14.947   15.735
 xc_calc_2nd_deriv                   47  8.9    0.568    0.630   13.511   15.451
 qs_ks_update_qs_env_forces           1  3.0    0.000    0.000   12.779   12.779
 qs_fgxc_gdiff                        1 11.0    0.000    0.000   11.943   11.944
 x_to_yz                           1713 15.0    5.732    6.579    9.842   11.925
 qs_fxc_fdiff                         7 12.0    0.001    0.001   11.913   11.915
 tddfpt_apply_coulomb                81 10.0    0.001    0.002   10.080   11.300
 potential_pw2rs                    154 10.3    0.015    0.016   10.270   11.057
 xc_prep_2nd_deriv                   48  8.9    0.000    0.000    8.370   10.034
 apply_hfx                           45  7.0    0.001    0.001    9.508    9.516
 hfx_matrix                          45  8.0    0.001    0.001    9.504    9.512
 put_rho0_on_grid                   198  9.6    0.362    0.409    9.208    9.444
 transfer_rs2pw                     983 11.2    0.011    0.013    8.319    9.175
 pw_gather_p                       1801 14.1    7.679    7.917    7.679    7.917
 transfer_rs2pw_200                 395 12.0    3.142    3.250    6.571    7.483
 xc_functional_eval                2952 11.9    0.004    0.007    3.907    7.135
 integrate_vhg0_rspace              150  9.7    1.627    1.734    6.990    7.003
 transfer_pw2rs                     767 11.1    0.007    0.008    6.743    6.770
 pw_poisson_solve                   151  9.7    0.003    0.003    5.088    6.407
 mp_sum_d                          2210  9.0    3.923    5.986    3.923    5.986
 pw_scatter_p                      1713 14.0    5.750    5.840    5.750    5.840
 init_scf_loop                        1  5.0    0.000    0.000    5.761    5.761
 mp_waitany                       14000 13.0    4.801    5.748    4.801    5.748
 grid_collocate_task_list           196 10.3    4.075    5.683    4.075    5.683
 transfer_pw2rs_200                 305 12.0    2.602    2.654    5.217    5.284
 -------------------------------------------------------------------------------

 The number of warnings for this run is : 0
 
 -------------------------------------------------------------------------------
  **** **** ******  **  PROGRAM ENDED AT                 2025-01-06 14:04:36.588
 ***** ** ***  *** **   PROGRAM RAN ON                               nesh-clk367
 **    ****   ******    PROGRAM RAN BY                                  suphc356
 ***** **    ** ** **   PROGRAM PROCESS ID                                143145
  **** **  *******  **  PROGRAM STOPPED IN /gxfs_work/cau/suphc356/NEWTONX_proje
                                           ct/Pyrazin_molecule/CP2K_GAPW_B3LYP_d
                                           ef2_TZVP/MOLDYN_BA_again/TRAJECTORIES
                                           /TRAJ73/TEMP
