 DBCSR| CPU Multiplication driver                                           XSMM (U)
 DBCSR| Multrec recursion limit                                              512 (U)
 DBCSR| Multiplication stack size                                           1000 (D)
 DBCSR| Maximum elements for images                                    UNLIMITED (U)
 DBCSR| Multiplicative factor virtual images                                   1 (U)
 DBCSR| Use multiplication densification                                       T (D)
 DBCSR| Multiplication size stacks                                             3 (U)
 DBCSR| Use memory pool for CPU allocation                                     F (U)
 DBCSR| Number of 3D layers                                               SINGLE (U)
 DBCSR| Use MPI memory allocation                                              F (U)
 DBCSR| Use RMA algorithm                                                      F (U)
 DBCSR| Use Communication thread                                               T (U)
 DBCSR| Communication thread load                                             87 (D)
 DBCSR| MPI: My process id                                                     0
 DBCSR| MPI: Number of processes                                              16
 DBCSR| OMP: Current number of threads                                         1
 DBCSR| OMP: Max number of threads                                             1
 DBCSR| Split modifier for TAS multiplication algorithm                  1.0E+00 (U)


  **** **** ******  **  PROGRAM STARTED AT               2025-01-08 06:19:49.079
 ***** ** ***  *** **   PROGRAM STARTED ON                           nesh-srp243
 **    ****   ******    PROGRAM STARTED BY                              suphc356
 ***** **    ** ** **   PROGRAM PROCESS ID                               2549241
  **** **  *******  **  PROGRAM STARTED IN /gxfs_work/cau/suphc356/NEWTONX_proje
                                           ct/Pyrazin_molecule/CP2K_GAPW_B3LYP_d
                                           ef2_TZVP/MOLDYN_BA_again/TRAJECTORIES
                                           /TRAJ165/TEMP

 CP2K| version string:                 CP2K version 2024.1 (Development Version)
 CP2K| source code revision number:                                  git:990486a
 CP2K| cp2kflags: omp libint fftw3 libxc libgrpp parallel mpi_f08 scalapack cosm
 CP2K|            a xsmm spglib mkl
 CP2K| is freely available from                            https://www.cp2k.org/
 CP2K| Program compiled at                          Mon Mar 11 08:48:45 CET 2024
 CP2K| Program compiled on                                           nesh-login2
 CP2K| Program compiled for                                                local
 CP2K| Data directory path                 /gxfs_work/cau/suphc356/cp2k_gcc/data
 CP2K| Input file name                                                  cp2k.inp

 GLOBAL| Force Environment number                                              1
 GLOBAL| Basis set file name                                     EMSL_BASIS_SETS
 GLOBAL| Potential file name                                      ALL_POTENTIALS
 GLOBAL| MM Potential file name                                     MM_POTENTIAL
 GLOBAL| Coordinate file name                                      __STD_INPUT__
 GLOBAL| Method name                                                        CP2K
 GLOBAL| Project name                                               testsuite_ad
 GLOBAL| Run type                                                   ENERGY_FORCE
 GLOBAL| FFT library                                                       FFTW3
 GLOBAL| Diagonalization library                                       ScaLAPACK
 GLOBAL| DGEMM library                                                      BLAS
 GLOBAL| Orthonormality check for eigenvectors                          DISABLED
 GLOBAL| Matrix multiplication library                                     COSMA
 GLOBAL| All-to-all communication in single precision                          F
 GLOBAL| FFTs using library dependent lengths                                  F
 GLOBAL| Grid backend                                                       AUTO
 GLOBAL| Global print level                                               MEDIUM
 GLOBAL| MPI I/O enabled                                                       T
 GLOBAL| Total number of message passing processes                            16
 GLOBAL| Number of threads for this process                                    1
 GLOBAL| This output is from process                                           0
 GLOBAL| Stack size for threads created by OpenMP (OMP_STACKSIZE)           256M
 GLOBAL| CPU model name                              Intel(R) Xeon(R) Gold 6426Y
 GLOBAL| CPUID                                                              1003
 GLOBAL| Compiled for CPUID                                                    0

 *** HINT in environment.F:920 :: The compiler target flags (generic) used ***
 *** to build this binary cannot exploit all extensions of this CPU model  ***
 *** (x86_avx512). Consider compiler target flags as part of FCFLAGS and   ***
 *** CFLAGS (ARCH file).                                                   ***


 MEMORY| system memory details [Kb]
 MEMORY|                        rank 0           min           max       average
 MEMORY| MemTotal            263786136     263786136     263786136     263786136
 MEMORY| MemFree             237654404     237654404     237654404     237654404
 MEMORY| Buffers               1381956       1381956       1381956       1381956
 MEMORY| Cached                 825912        825912        825912        825912
 MEMORY| Slab                  8906840       8906840       8906840       8906840
 MEMORY| SReclaimable           295252        295252        295252        295252
 MEMORY| MemLikelyFree       240157524     240157524     240157524     240157524


 *** Fundamental physical constants (SI units) ***

 *** Literature: B. J. Mohr and B. N. Taylor,
 ***             CODATA recommended values of the fundamental physical
 ***             constants: 2006, Web Version 5.1
 ***             http://physics.nist.gov/constants

 Speed of light in vacuum [m/s]                             2.99792458000000E+08
 Magnetic constant or permeability of vacuum [N/A**2]       1.25663706143592E-06
 Electric constant or permittivity of vacuum [F/m]          8.85418781762039E-12
 Planck constant (h) [J*s]                                  6.62606896000000E-34
 Planck constant (h-bar) [J*s]                              1.05457162825177E-34
 Elementary charge [C]                                      1.60217648700000E-19
 Electron mass [kg]                                         9.10938215000000E-31
 Electron g factor [ ]                                     -2.00231930436220E+00
 Proton mass [kg]                                           1.67262163700000E-27
 Fine-structure constant                                    7.29735253760000E-03
 Rydberg constant [1/m]                                     1.09737315685270E+07
 Avogadro constant [1/mol]                                  6.02214179000000E+23
 Boltzmann constant [J/K]                                   1.38065040000000E-23
 Atomic mass unit [kg]                                      1.66053878200000E-27
 Bohr radius [m]                                            5.29177208590000E-11

 *** Conversion factors ***

 [u] -> [a.u.]                                              1.82288848426455E+03
 [Angstrom] -> [Bohr] = [a.u.]                              1.88972613288564E+00
 [a.u.] = [Bohr] -> [Angstrom]                              5.29177208590000E-01
 [a.u.] -> [s]                                              2.41888432650478E-17
 [a.u.] -> [fs]                                             2.41888432650478E-02
 [a.u.] -> [J]                                              4.35974393937059E-18
 [a.u.] -> [N]                                              8.23872205491840E-08
 [a.u.] -> [K]                                              3.15774647902944E+05
 [a.u.] -> [kJ/mol]                                         2.62549961709828E+03
 [a.u.] -> [kcal/mol]                                       6.27509468713739E+02
 [a.u.] -> [Pa]                                             2.94210107994716E+13
 [a.u.] -> [bar]                                            2.94210107994716E+08
 [a.u.] -> [atm]                                            2.90362800883016E+08
 [a.u.] -> [eV]                                             2.72113838565563E+01
 [a.u.] -> [Hz]                                             6.57968392072181E+15
 [a.u.] -> [1/cm] (wave numbers)                            2.19474631370540E+05
 [a.u./Bohr**2] -> [1/cm]                                   5.14048714338585E+03
 

 CELL_TOP| Volume [angstrom^3]:                                      2744.000000
 CELL_TOP| Vector a [angstrom    14.000     0.000     0.000   |a| =    14.000000
 CELL_TOP| Vector b [angstrom     0.000    14.000     0.000   |b| =    14.000000
 CELL_TOP| Vector c [angstrom     0.000     0.000    14.000   |c| =    14.000000
 CELL_TOP| Angle (b,c), alpha [degree]:                                90.000000
 CELL_TOP| Angle (a,c), beta  [degree]:                                90.000000
 CELL_TOP| Angle (a,b), gamma [degree]:                                90.000000
 CELL_TOP| Numerically orthorhombic:                                         YES
 CELL_TOP| Periodicity                                                      NONE

 CELL| Volume [angstrom^3]:                                          2744.000000
 CELL| Vector a [angstrom]:      14.000     0.000     0.000   |a| =    14.000000
 CELL| Vector b [angstrom]:       0.000    14.000     0.000   |b| =    14.000000
 CELL| Vector c [angstrom]:       0.000     0.000    14.000   |c| =    14.000000
 CELL| Angle (b,c), alpha [degree]:                                    90.000000
 CELL| Angle (a,c), beta  [degree]:                                    90.000000
 CELL| Angle (a,b), gamma [degree]:                                    90.000000
 CELL| Numerically orthorhombic:                                             YES
 CELL| Periodicity                                                          NONE

 CELL_REF| Volume [angstrom^3]:                                      2744.000000
 CELL_REF| Vector a [angstrom    14.000     0.000     0.000   |a| =    14.000000
 CELL_REF| Vector b [angstrom     0.000    14.000     0.000   |b| =    14.000000
 CELL_REF| Vector c [angstrom     0.000     0.000    14.000   |c| =    14.000000
 CELL_REF| Angle (b,c), alpha [degree]:                                90.000000
 CELL_REF| Angle (a,c), beta  [degree]:                                90.000000
 CELL_REF| Angle (a,b), gamma [degree]:                                90.000000
 CELL_REF| Numerically orthorhombic:                                         YES
 CELL_REF| Periodicity                                                      NONE

 *******************************************************************************
 *******************************************************************************
 **                                                                           **
 **     #####                         ##              ##                      **
 **    ##   ##            ##          ##              ##                      **
 **   ##     ##                       ##            ######                    **
 **   ##     ##  ##   ##  ##   #####  ##  ##   ####   ##    #####    #####    **
 **   ##     ##  ##   ##  ##  ##      ## ##   ##      ##   ##   ##  ##   ##   **
 **   ##  ## ##  ##   ##  ##  ##      ####     ###    ##   ######   ######    **
 **    ##  ###   ##   ##  ##  ##      ## ##      ##   ##   ##       ##        **
 **     #######   #####   ##   #####  ##  ##  ####    ##    #####   ##        **
 **           ##                                                    ##        **
 **                                                                           **
 **                                                ... make the atoms dance   **
 **                                                                           **
 **            Copyright (C) by CP2K developers group (2000-2024)             **
 **                      J. Chem. Phys. 152, 194103 (2020)                    **
 **                                                                           **
 *******************************************************************************

 DFT| Spin restricted Kohn-Sham (RKS) calculation                            RKS
 DFT| Multiplicity                                                             1
 DFT| Number of spin states                                                    1
 DFT| Charge                                                                   0
 DFT| Self-interaction correction (SIC)                                       NO
 DFT| Cutoffs: density                                              1.000000E-10
 DFT|          gradient                                             1.000000E-10
 DFT|          tau                                                  1.000000E-10
 DFT|          cutoff_smoothing_range                               0.000000E+00
 DFT| XC density smoothing                                                  NONE
 DFT| XC derivatives                                                          PW

 FUNCTIONAL| BECKE88:
 FUNCTIONAL| A. Becke, Phys. Rev. A 38, 3098 (1988) {LDA version}               
 FUNCTIONAL| LYP:
 FUNCTIONAL| C. Lee, W. Yang, R.G. Parr, Phys. Rev. B, 37, 785 (1988) {LDA versi
 FUNCTIONAL| on}                                                                
 FUNCTIONAL| VWN:
 FUNCTIONAL| S. H. Vosko, L. Wilk and M. Nusair, Can. J. Phys. 58, 1200 (1980) {
 FUNCTIONAL| LDA version}                                                       
 FUNCTIONAL| XALPHA:
 FUNCTIONAL| Dirac/Slater local exchange; parameter=  0.666 {LDA}               

 vdW POTENTIAL|                                                   Pair Potential
 vdW POTENTIAL|          DFT-D3 (Version 3.1)
 vdW POTENTIAL|          Potential Form: S. Grimme et al, JCP 132: 154104 (2010)
 vdW POTENTIAL|          Zero Damping
 vdW POTENTIAL|          Cutoff Radius [Bohr]:                             37.79
 vdW POTENTIAL|          s6 Scaling Factor:                               1.0000
 vdW POTENTIAL|          sr6 Scaling Factor:                              1.2610
 vdW POTENTIAL|          s8 Scaling Factor:                               1.7030
 vdW POTENTIAL|          Cutoff for CN calculation:                   0.1000E-05

 QS| Method:                                                                GAPW
 QS| Density plane wave grid type                        NON-SPHERICAL FULLSPACE
 QS| Number of grid levels:                                                    4
 QS| Density cutoff [a.u.]:                                                200.0
 QS| Multi grid cutoff [a.u.]: 1) grid level                               200.0
 QS|                           2) grid level                                66.7
 QS|                           3) grid level                                22.2
 QS|                           4) grid level                                 7.4
 QS| Grid level progression factor:                                          3.0
 QS| Relative density cutoff [a.u.]:                                        30.0
 QS| Interaction thresholds: eps_pgf_orb:                                1.0E-07
 QS|                         eps_filter_matrix:                          0.0E+00
 QS|                         eps_core_charge:                            1.0E-16
 QS|                         eps_rho_gspace:                             1.0E-14
 QS|                         eps_rho_rspace:                             1.0E-14
 QS|                         eps_gvg_rspace:                             1.0E-07
 QS|                         eps_ppl:                                    1.0E-02
 QS|                         eps_ppnl:                                   1.0E-09
 QS| GAPW|      One center basis extended with primitives (small:s)
 QS| GAPW|                   eps_fit:                                    1.0E-04
 QS| GAPW|                   eps_iso:                                    1.0E-12
 QS| GAPW|                   eps_svd:                                    1.0E-08
 QS| GAPW|                   eps_cpc:                                    1.0E-14
 QS| GAPW|   atom-r-grid: quadrature:                                     GC_LOG
 QS| GAPW|      atom-s-grid:  max l :                                          6
 QS| GAPW|      max_l_rho0 :                                                   4


 ATOMIC KIND INFORMATION

  1. Atomic kind: n                                     Number of atoms:       2

     Orbital Basis Set                                        Ahlrichs-def2-TZVP

       Number of orbital shell sets:                                          11
       Number of orbital shells:                                              11
       Number of primitive Cartesian functions:                               20
       Number of Cartesian basis functions:                                   36
       Number of spherical basis functions:                                   31
       Norm type:                                                              2

       Normalised Cartesian orbitals:

                        Set   Shell   Orbital            Exponent    Coefficient

                          1       1    1s            19730.800647       0.695604
                                                      2957.895874       1.298610
                                                       673.221336       2.219088
                                                       190.682495       3.463661
                                                        62.295442       4.696756
                                                        22.654161       4.952251

                          2       1    1s                8.979148       2.388068
                                                         3.686300       0.733788

                          3       1    1s                0.846601       0.629027

                          4       1    1s                0.336471       0.314863

                          5       1    1s                0.136477       0.160031

                          6       1    1px              49.200381       2.126481
                                                        11.346791       2.327937
                                                         3.427397       2.048573
                                                         1.178553       1.260732
                          6       1    1py              49.200381       2.126481
                                                        11.346791       2.327937
                                                         3.427397       2.048573
                                                         1.178553       1.260732
                          6       1    1pz              49.200381       2.126481
                                                        11.346791       2.327937
                                                         3.427397       2.048573
                                                         1.178553       1.260732

                          7       1    1px               0.416422       0.476823
                          7       1    1py               0.416422       0.476823
                          7       1    1pz               0.416422       0.476823

                          8       1    1px               0.142608       0.124917
                          8       1    1py               0.142608       0.124917
                          8       1    1pz               0.142608       0.124917

                          9       1    1dx2              1.654000       3.970513
                          9       1    1dxy              1.654000       6.877130
                          9       1    1dxz              1.654000       6.877130
                          9       1    1dy2              1.654000       3.970513
                          9       1    1dyz              1.654000       6.877130
                          9       1    1dz2              1.654000       3.970513

                         10       1    1dx2              0.469000       0.437484
                         10       1    1dxy              0.469000       0.757744
                         10       1    1dxz              0.469000       0.757744
                         10       1    1dy2              0.469000       0.437484
                         10       1    1dyz              0.469000       0.757744
                         10       1    1dz2              0.469000       0.437484

                         11       1    1fx3              1.093000       1.798249
                         11       1    1fx2y             1.093000       4.021007
                         11       1    1fx2z             1.093000       4.021007
                         11       1    1fxy2             1.093000       4.021007
                         11       1    1fxyz             1.093000       6.964588
                         11       1    1fxz2             1.093000       4.021007
                         11       1    1fy3              1.093000       1.798249
                         11       1    1fy2z             1.093000       4.021007
                         11       1    1fyz2             1.093000       4.021007
                         11       1    1fz3              1.093000       1.798249

       Atomic covalent radius [Angstrom]:                                  0.750

       Atomic van der Waals radius [Angstrom]:                             1.550

     The atoms of this atomic kind are PAW atoms (GAPW):
       Hard Gaussian function radius:                                      1.400
       Rho0 radius:                                                        1.400
       Maximum GTO radius used for PAW projector construction:            24.566

     GAPW Soft Basis Set                                 Ahlrichs-def2-TZVP_soft

       Number of orbital shell sets:                                          11
       Number of orbital shells:                                              11
       Number of primitive Cartesian functions:                               11
       Number of Cartesian basis functions:                                   36
       Number of spherical basis functions:                                   31
       Norm type:                                                              2

       Normalised Cartesian orbitals:

                        Set   Shell   Orbital            Exponent    Coefficient

                          1       1    1s         

                          2       1    1s                3.686300       0.733788

                          3       1    1s                0.846601       0.629027

                          4       1    1s                0.336471       0.314863

                          5       1    1s                0.136477       0.160031

                          6       1    1px               3.427397       2.048573
                                                         1.178553       1.260732
                          6       1    1py               3.427397       2.048573
                                                         1.178553       1.260732
                          6       1    1pz               3.427397       2.048573
                                                         1.178553       1.260732

                          7       1    1px               0.416422       0.476823
                          7       1    1py               0.416422       0.476823
                          7       1    1pz               0.416422       0.476823

                          8       1    1px               0.142608       0.124917
                          8       1    1py               0.142608       0.124917
                          8       1    1pz               0.142608       0.124917

                          9       1    1dx2              1.654000       3.970513
                          9       1    1dxy              1.654000       6.877130
                          9       1    1dxz              1.654000       6.877130
                          9       1    1dy2              1.654000       3.970513
                          9       1    1dyz              1.654000       6.877130
                          9       1    1dz2              1.654000       3.970513

                         10       1    1dx2              0.469000       0.437484
                         10       1    1dxy              0.469000       0.757744
                         10       1    1dxz              0.469000       0.757744
                         10       1    1dy2              0.469000       0.437484
                         10       1    1dyz              0.469000       0.757744
                         10       1    1dz2              0.469000       0.437484

                         11       1    1fx3              1.093000       1.798249
                         11       1    1fx2y             1.093000       4.021007
                         11       1    1fx2z             1.093000       4.021007
                         11       1    1fxy2             1.093000       4.021007
                         11       1    1fxyz             1.093000       6.964588
                         11       1    1fxz2             1.093000       4.021007
                         11       1    1fy3              1.093000       1.798249
                         11       1    1fy2z             1.093000       4.021007
                         11       1    1fyz2             1.093000       4.021007
                         11       1    1fz3              1.093000       1.798249

     AE Potential information for                                            ALL

       Description:                                       All-electron potential
                                          Krack, Parrinello, PCCP 2, 2105 (2000)

       Gaussian exponent of the core charge distribution:               5.979100
       Electronic configuration (s p d ...):                           4   3   0

  2. Atomic kind: c                                     Number of atoms:       4

     Orbital Basis Set                                        Ahlrichs-def2-TZVP

       Number of orbital shell sets:                                          11
       Number of orbital shells:                                              11
       Number of primitive Cartesian functions:                               20
       Number of Cartesian basis functions:                                   36
       Number of spherical basis functions:                                   31
       Norm type:                                                              2

       Normalised Cartesian orbitals:

                        Set   Shell   Orbital            Exponent    Coefficient

                          1       1    1s            13575.349682       0.543591
                                                      2035.233368       1.014554
                                                       463.225624       1.731573
                                                       131.200196       2.691038
                                                        42.853016       3.604455
                                                        15.584186       3.702556

                          2       1    1s                6.206714       1.838354
                                                         2.576490       0.544758

                          3       1    1s                0.576963       0.471815

                          4       1    1s                0.229728       0.236494

                          5       1    1s                0.095164       0.122114

                          6       1    1px              34.697232       1.359665
                                                         7.958262       1.451259
                                                         2.378083       1.270923
                                                         0.814332       0.802572
                          6       1    1py              34.697232       1.359665
                                                         7.958262       1.451259
                                                         2.378083       1.270923
                                                         0.814332       0.802572
                          6       1    1pz              34.697232       1.359665
                                                         7.958262       1.451259
                                                         2.378083       1.270923
                                                         0.814332       0.802572

                          7       1    1px               0.288875       0.301876
                          7       1    1py               0.288875       0.301876
                          7       1    1pz               0.288875       0.301876

                          8       1    1px               0.100568       0.080727
                          8       1    1py               0.100568       0.080727
                          8       1    1pz               0.100568       0.080727

                          9       1    1dx2              1.097000       1.935401
                          9       1    1dxy              1.097000       3.352214
                          9       1    1dxz              1.097000       3.352214
                          9       1    1dy2              1.097000       1.935401
                          9       1    1dyz              1.097000       3.352214
                          9       1    1dz2              1.097000       1.935401

                         10       1    1dx2              0.318000       0.221644
                         10       1    1dxy              0.318000       0.383899
                         10       1    1dxz              0.318000       0.383899
                         10       1    1dy2              0.318000       0.221644
                         10       1    1dyz              0.318000       0.383899
                         10       1    1dz2              0.318000       0.221644

                         11       1    1fx3              0.761000       0.796288
                         11       1    1fx2y             0.761000       1.780553
                         11       1    1fx2z             0.761000       1.780553
                         11       1    1fxy2             0.761000       1.780553
                         11       1    1fxyz             0.761000       3.084008
                         11       1    1fxz2             0.761000       1.780553
                         11       1    1fy3              0.761000       0.796288
                         11       1    1fy2z             0.761000       1.780553
                         11       1    1fyz2             0.761000       1.780553
                         11       1    1fz3              0.761000       0.796288

       Atomic covalent radius [Angstrom]:                                  0.770

       Atomic van der Waals radius [Angstrom]:                             1.700

     The atoms of this atomic kind are PAW atoms (GAPW):
       Hard Gaussian function radius:                                      1.520
       Rho0 radius:                                                        1.520
       Maximum GTO radius used for PAW projector construction:            24.566

     GAPW Soft Basis Set                                 Ahlrichs-def2-TZVP_soft

       Number of orbital shell sets:                                          11
       Number of orbital shells:                                              11
       Number of primitive Cartesian functions:                               11
       Number of Cartesian basis functions:                                   36
       Number of spherical basis functions:                                   31
       Norm type:                                                              2

       Normalised Cartesian orbitals:

                        Set   Shell   Orbital            Exponent    Coefficient

                          1       1    1s         

                          2       1    1s                2.576490       0.544758

                          3       1    1s                0.576963       0.471815

                          4       1    1s                0.229728       0.236494

                          5       1    1s                0.095164       0.122114

                          6       1    1px               2.378083       1.270923
                                                         0.814332       0.802572
                          6       1    1py               2.378083       1.270923
                                                         0.814332       0.802572
                          6       1    1pz               2.378083       1.270923
                                                         0.814332       0.802572

                          7       1    1px               0.288875       0.301876
                          7       1    1py               0.288875       0.301876
                          7       1    1pz               0.288875       0.301876

                          8       1    1px               0.100568       0.080727
                          8       1    1py               0.100568       0.080727
                          8       1    1pz               0.100568       0.080727

                          9       1    1dx2              1.097000       1.935401
                          9       1    1dxy              1.097000       3.352214
                          9       1    1dxz              1.097000       3.352214
                          9       1    1dy2              1.097000       1.935401
                          9       1    1dyz              1.097000       3.352214
                          9       1    1dz2              1.097000       1.935401

                         10       1    1dx2              0.318000       0.221644
                         10       1    1dxy              0.318000       0.383899
                         10       1    1dxz              0.318000       0.383899
                         10       1    1dy2              0.318000       0.221644
                         10       1    1dyz              0.318000       0.383899
                         10       1    1dz2              0.318000       0.221644

                         11       1    1fx3              0.761000       0.796288
                         11       1    1fx2y             0.761000       1.780553
                         11       1    1fx2z             0.761000       1.780553
                         11       1    1fxy2             0.761000       1.780553
                         11       1    1fxyz             0.761000       3.084008
                         11       1    1fxz2             0.761000       1.780553
                         11       1    1fy3              0.761000       0.796288
                         11       1    1fy2z             0.761000       1.780553
                         11       1    1fyz2             0.761000       1.780553
                         11       1    1fz3              0.761000       0.796288

     AE Potential information for                                            ALL

       Description:                                       All-electron potential
                                          Krack, Parrinello, PCCP 2, 2105 (2000)

       Gaussian exponent of the core charge distribution:               4.109048
       Electronic configuration (s p d ...):                           4   2   0

  3. Atomic kind: h                                     Number of atoms:       4

     Orbital Basis Set                                        Ahlrichs-def2-TZVP

       Number of orbital shell sets:                                           4
       Number of orbital shells:                                               4
       Number of primitive Cartesian functions:                                6
       Number of Cartesian basis functions:                                    6
       Number of spherical basis functions:                                    6
       Norm type:                                                              2

       Normalised Cartesian orbitals:

                        Set   Shell   Orbital            Exponent    Coefficient

                          1       1    1s               34.061341       0.255630
                                                         5.123575       0.461360
                                                         1.164663       0.681121

                          2       1    1s                0.327230       0.308355

                          3       1    1s                0.103072       0.129648

                          4       1    1px               0.800000       1.078456
                          4       1    1py               0.800000       1.078456
                          4       1    1pz               0.800000       1.078456

       Atomic covalent radius [Angstrom]:                                  0.320

       Atomic van der Waals radius [Angstrom]:                             1.090

     The atoms of this atomic kind are PAW atoms (GAPW):
       Hard Gaussian function radius:                                      1.000
       Rho0 radius:                                                        1.000
       Maximum GTO radius used for PAW projector construction:            24.566

     GAPW Soft Basis Set                                 Ahlrichs-def2-TZVP_soft

       Number of orbital shell sets:                                           4
       Number of orbital shells:                                               4
       Number of primitive Cartesian functions:                                5
       Number of Cartesian basis functions:                                    6
       Number of spherical basis functions:                                    6
       Norm type:                                                              2

       Normalised Cartesian orbitals:

                        Set   Shell   Orbital            Exponent    Coefficient

                          1       1    1s                5.123575       0.461360
                                                         1.164663       0.681121

                          2       1    1s                0.327230       0.308355

                          3       1    1s                0.103072       0.129648

                          4       1    1px               0.800000       1.078456
                          4       1    1py               0.800000       1.078456
                          4       1    1pz               0.800000       1.078456

     AE Potential information for                                            ALL

       Description:                                       All-electron potential
                                          Krack, Parrinello, PCCP 2, 2105 (2000)

       Gaussian exponent of the core charge distribution:              12.500000
       Electronic configuration (s p d ...):                           1   0   0


 MOLECULE KIND INFORMATION


 All atoms are their own molecule, skipping detailed information


 TOTAL NUMBERS AND MAXIMUM NUMBERS

  Total number of            - Atomic kinds:                                   3
                             - Atoms:                                         10
                             - Shell sets:                                    82
                             - Shells:                                        82
                             - Primitive Cartesian functions:                144
                             - Cartesian basis functions:                    240
                             - Spherical basis functions:                    210

  Maximum angular momentum of the orbital basis functions:                     3


 MODULE QUICKSTEP: ATOMIC COORDINATES IN ANGSTROM

   Atom Kind Element         X             Y             Z       Z(eff)     Mass
      1    1 n     7      7.016342      8.090982      7.483358   7.0000  14.0067
      2    1 n     7      7.006298      5.993398      6.380594   7.0000  14.0067
      3    2 c     6      6.909511      7.228438      8.386727   6.0000  12.0107
      4    2 c     6      7.030734      5.902732      7.707345   6.0000  12.0107
      5    2 c     6      6.997834      8.266738      6.240315   6.0000  12.0107
      6    2 c     6      6.831341      6.966482      5.500189   6.0000  12.0107
      7    3 h     1      7.256010      7.441663      9.474550   1.0000   1.0079
      8    3 h     1      6.920593      4.862113      7.984983   1.0000   1.0079
      9    3 h     1      6.817471      9.137887      5.824585   1.0000   1.0079
     10    3 h     1      6.743990      6.718184      4.525450   1.0000   1.0079



 SCF PARAMETERS         Density guess:                                   RESTART
                        --------------------------------------------------------
                        max_scf:                                              50
                        max_scf_history:                                       0
                        max_diis:                                              4
                        --------------------------------------------------------
                        eps_scf:                                        1.00E-08
                        eps_scf_history:                                0.00E+00
                        eps_diis:                                       1.00E-01
                        eps_eigval:                                     1.00E-05
                        --------------------------------------------------------
                        level_shift [a.u.]:                             0.000000
                        --------------------------------------------------------
                        Outer loop SCF in use 
                        No variables optimised in outer loop
                        eps_scf                                         1.00E-08
                        max_scf                                              900
                        No outer loop optimization
                        step_size                                       5.00E-01

 PW_GRID| Information for grid number                                          1
 PW_GRID| Grid distributed over                                    16 processors
 PW_GRID| Real space group dimensions                                    16    1
 PW_GRID| the grid is blocked:                                                NO
 PW_GRID| Cutoff [a.u.]                                                    400.0
 PW_GRID| spherical cutoff:                                                   NO
 PW_GRID|   Bounds   1           -120     119                Points:         240
 PW_GRID|   Bounds   2           -120     119                Points:         240
 PW_GRID|   Bounds   3           -120     119                Points:         240
 PW_GRID| Volume element (a.u.^3)  0.1340E-02     Volume (a.u.^3)     18517.4301
 PW_GRID| Grid span                                                    FULLSPACE
 PW_GRID|   Distribution                         Average         Max         Min
 PW_GRID|   G-Vectors                           864000.0      864000      864000
 PW_GRID|   G-Rays                                3600.0        3600        3600
 PW_GRID|   Real Space Points                   864000.0      864000      864000

 PW_GRID| Information for grid number                                          2
 PW_GRID| Number of the reference grid                                         1
 PW_GRID| Grid distributed over                                    16 processors
 PW_GRID| Real space group dimensions                                    16    1
 PW_GRID| the grid is blocked:                                                NO
 PW_GRID| Cutoff [a.u.]                                                    200.0
 PW_GRID| spherical cutoff:                                                   NO
 PW_GRID|   Bounds   1            -90      89                Points:         180
 PW_GRID|   Bounds   2            -90      89                Points:         180
 PW_GRID|   Bounds   3            -90      89                Points:         180
 PW_GRID| Volume element (a.u.^3)  0.3175E-02     Volume (a.u.^3)     18517.4301
 PW_GRID| Grid span                                                    FULLSPACE
 PW_GRID|   Distribution                         Average         Max         Min
 PW_GRID|   G-Vectors                           364500.0      364680      364320
 PW_GRID|   G-Rays                                2025.0        2026        2024
 PW_GRID|   Real Space Points                   364500.0      388800      356400

 PW_GRID| Information for grid number                                          3
 PW_GRID| Number of the reference grid                                         2
 PW_GRID| Grid distributed over                                    16 processors
 PW_GRID| Real space group dimensions                                    16    1
 PW_GRID| the grid is blocked:                                                NO
 PW_GRID| Cutoff [a.u.]                                                     66.7
 PW_GRID| spherical cutoff:                                                   NO
 PW_GRID|   Bounds   1            -50      49                Points:         100
 PW_GRID|   Bounds   2            -50      49                Points:         100
 PW_GRID|   Bounds   3            -50      49                Points:         100
 PW_GRID| Volume element (a.u.^3)  0.1852E-01     Volume (a.u.^3)     18517.4301
 PW_GRID| Grid span                                                    FULLSPACE
 PW_GRID|   Distribution                         Average         Max         Min
 PW_GRID|   G-Vectors                            62500.0       62600       62400
 PW_GRID|   G-Rays                                 625.0         626         624
 PW_GRID|   Real Space Points                    62500.0       70000       60000

 PW_GRID| Information for grid number                                          4
 PW_GRID| Number of the reference grid                                         2
 PW_GRID| Grid distributed over                                    16 processors
 PW_GRID| Real space group dimensions                                    16    1
 PW_GRID| the grid is blocked:                                                NO
 PW_GRID| Cutoff [a.u.]                                                     22.2
 PW_GRID| spherical cutoff:                                                   NO
 PW_GRID|   Bounds   1            -30      29                Points:          60
 PW_GRID|   Bounds   2            -30      29                Points:          60
 PW_GRID|   Bounds   3            -30      29                Points:          60
 PW_GRID| Volume element (a.u.^3)  0.8573E-01     Volume (a.u.^3)     18517.4301
 PW_GRID| Grid span                                                    FULLSPACE
 PW_GRID|   Distribution                         Average         Max         Min
 PW_GRID|   G-Vectors                            13500.0       13560       13440
 PW_GRID|   G-Rays                                 225.0         226         224
 PW_GRID|   Real Space Points                    13500.0       14400       10800

 PW_GRID| Information for grid number                                          5
 PW_GRID| Number of the reference grid                                         2
 PW_GRID| Grid distributed over                                    16 processors
 PW_GRID| Real space group dimensions                                    16    1
 PW_GRID| the grid is blocked:                                                NO
 PW_GRID| Cutoff [a.u.]                                                      7.4
 PW_GRID| spherical cutoff:                                                   NO
 PW_GRID|   Bounds   1            -18      17                Points:          36
 PW_GRID|   Bounds   2            -18      17                Points:          36
 PW_GRID|   Bounds   3            -18      17                Points:          36
 PW_GRID| Volume element (a.u.^3)  0.3969         Volume (a.u.^3)     18517.4301
 PW_GRID| Grid span                                                    FULLSPACE
 PW_GRID|   Distribution                         Average         Max         Min
 PW_GRID|   G-Vectors                             2916.0        2952        2880
 PW_GRID|   G-Rays                                  81.0          82          80
 PW_GRID|   Real Space Points                     2916.0        3888        2592

 POISSON| Solver                                          Martyna-Tuckerman (MT)
 POISSON| MT| Alpha                                                        7.000
 POISSON| MT| Relative cutoff                                                2.0
 POISSON| Periodicity                                                       NONE

 RS_GRID| Information for grid number                                          2
 RS_GRID|   Bounds   1            -90      89                Points:         180
 RS_GRID|   Bounds   2            -90      89                Points:         180
 RS_GRID|   Bounds   3            -90      89                Points:         180
 RS_GRID| Real space distribution over                                  4 groups
 RS_GRID| Real space distribution along direction                              2
 RS_GRID| Border size                                                         31
 RS_GRID| Real space distribution over                                  4 groups
 RS_GRID| Real space distribution along direction                              3
 RS_GRID| Border size                                                         31
 RS_GRID|   Distribution                         Average         Max         Min
 RS_GRID|   Planes                                 107.0         107         107
 RS_GRID|   Distribution                         Average         Max         Min
 RS_GRID|   Planes                                 107.0         107         107

 RS_GRID| Information for grid number                                          3
 RS_GRID|   Bounds   1            -50      49                Points:         100
 RS_GRID|   Bounds   2            -50      49                Points:         100
 RS_GRID|   Bounds   3            -50      49                Points:         100
 RS_GRID| Real space fully replicated
 RS_GRID| Group size                                                           1

 RS_GRID| Information for grid number                                          4
 RS_GRID|   Bounds   1            -30      29                Points:          60
 RS_GRID|   Bounds   2            -30      29                Points:          60
 RS_GRID|   Bounds   3            -30      29                Points:          60
 RS_GRID| Real space fully replicated
 RS_GRID| Group size                                                           1

 RS_GRID| Information for grid number                                          5
 RS_GRID|   Bounds   1            -18      17                Points:          36
 RS_GRID|   Bounds   2            -18      17                Points:          36
 RS_GRID|   Bounds   3            -18      17                Points:          36
 RS_GRID| Real space fully replicated
 RS_GRID| Group size                                                           1

  HFX_INFO| Replica ID:                                                        1
  HFX_INFO| FRACTION:                                               0.2000000000
  HFX_INFO| Interaction Potential:                                       COULOMB
  HFX_INFO| EPS_SCHWARZ:                                                 1.0E-10
  HFX_INFO| EPS_SCHWARZ_FORCES                                           1.0E-08
  HFX_INFO| EPS_STORAGE_SCALING:                                         1.0E+00
  HFX_INFO| NBINS:                                                            64
  HFX_INFO| BLOCK_SIZE:                                                        1
  HFX_INFO| Number of periodic shells considered:                           NONE
  HFX_INFO| Number of periodic cells considered:                            NONE


 Number of electrons:                                                         42
 Number of occupied orbitals:                                                 21
 Number of molecular orbitals:                                                21

 Number of orbital functions:                                                210
 Number of independent orbital functions:                                    210

 Extrapolation method: initial_guess


 SCF WAVEFUNCTION OPTIMIZATION

  ----------------------------------- OT ---------------------------------------
  Minimizer      : DIIS                : direct inversion
                                         in the iterative subspace
                                         using   7 DIIS vectors
                                         safer DIIS on
  Preconditioner : FULL_ALL            : diagonalization, state selective
  Precond_solver : DEFAULT
  stepsize       :    0.15000000                  energy_gap     :    0.08000000
  eps_taylor     :   0.10000E-15                  max_taylor     :             4
  ----------------------------------- OT ---------------------------------------

  Step     Update method      Time    Convergence         Total energy    Change
  ------------------------------------------------------------------------------

  HFX_MEM_INFO| Est. max. program size before HFX [MiB]:                     637
  HFX_MEM_INFO| Number of cart. primitive ERI's calculated:           1728785098
  HFX_MEM_INFO| Number of sph. ERI's calculated:                       316468538
  HFX_MEM_INFO| Number of sph. ERI's stored in-core:                   316468538
  HFX_MEM_INFO| Number of sph. ERI's stored on disk:                           0
  HFX_MEM_INFO| Number of sph. ERI's calculated on the fly:                    0
  HFX_MEM_INFO| Total memory consumption ERI's RAM [MiB]:                    944
  HFX_MEM_INFO| Whereof max-vals [MiB]:                                        5
  HFX_MEM_INFO| Total compression factor ERI's RAM:                         2.56
  HFX_MEM_INFO| Total memory consumption ERI's disk [MiB]:                     0
  HFX_MEM_INFO| Total compression factor ERI's disk:                        0.00
  HFX_MEM_INFO| Size of density/Fock matrix [MiB]:                             0
  HFX_MEM_INFO| Size of buffers [MiB]:                                         0
  HFX_MEM_INFO| Est. max. program size after HFX  [MiB]:                     697

     1 OT DIIS     0.15E+00    3.9     0.01477498      -264.0297243643 -2.64E+02
     2 OT DIIS     0.15E+00    0.7     0.00653367      -264.1320672647 -1.02E-01
     3 OT DIIS     0.15E+00    0.7     0.00301294      -264.1546410506 -2.26E-02
     4 OT DIIS     0.15E+00    0.7     0.00038786      -264.1563863176 -1.75E-03
     5 OT DIIS     0.15E+00    0.7     0.00016061      -264.1564462760 -6.00E-05
     6 OT DIIS     0.15E+00    0.7     0.00005963      -264.1564537269 -7.45E-06
     7 OT DIIS     0.15E+00    0.7     0.00002635      -264.1564553291 -1.60E-06
     8 OT DIIS     0.15E+00    0.7     0.00001273      -264.1564555851 -2.56E-07
     9 OT DIIS     0.15E+00    0.7     0.00000367      -264.1564556514 -6.63E-08
    10 OT DIIS     0.15E+00    0.7     0.00000146      -264.1564556587 -7.39E-09
    11 OT DIIS     0.15E+00    0.7     0.00000039      -264.1564556602 -1.44E-09
    12 OT DIIS     0.15E+00    0.7     0.00000021      -264.1564556602 -6.18E-11
    13 OT DIIS     0.15E+00    0.7     0.00000008      -264.1564556603 -1.56E-11
    14 OT DIIS     0.15E+00    0.7     0.00000004      -264.1564556603  2.10E-12
    15 OT DIIS     0.15E+00    0.7     0.00000001      -264.1564556603 -4.32E-12
    16 OT DIIS     0.15E+00    0.7     5.7205E-09      -264.1564556603 -1.59E-12

  *** SCF run converged in    16 steps ***


  Electronic density on regular grids:        -30.6398350875       11.3601649125
  Core density on regular grids:               42.0000000000       -0.0000000000
  Hard and soft densities (Lebedev):          -99.5796745811      -88.2195096659
  Total Rho_soft + Rho1_hard - Rho1_soft      -42.0000000026
  Total charge density (r-space):              -0.0000000026
  Total Rho_soft + Rho0_soft (g-space):        -0.0000000285

  Overlap energy of the core charge distribution:               0.00002768175104
  Self energy of the core charge distribution:               -217.69203579805162
  Core Hamiltonian energy:                                    -41.51882655234621
  Hartree energy:                                             109.45922556089064
  Exchange-correlation energy:                                -11.28200407349690
  Hartree-Fock Exchange energy:                                -7.07607201947163
  Dispersion energy:                                           -0.00365703631149

  GAPW| Exc from hard and soft atomic rho1:                   -18.55927568354823
  GAPW| local Eh = 1 center integrals:                        -77.48383773968128

  Total energy:                                              -264.15645566026564

  outer SCF iter =    1 RMS gradient =   0.57E-08 energy =       -264.1564556603
  outer SCF loop converged in   1 iterations or   16 steps


 !-----------------------------------------------------------------------------!
                     Mulliken Population Analysis

 #  Atom  Element  Kind  Atomic population                           Net charge
       1     n        1          7.073792                             -0.073792
       2     n        1          7.210040                             -0.210040
       3     c        2          6.078408                             -0.078408
       4     c        2          6.036958                             -0.036958
       5     c        2          6.075953                             -0.075953
       6     c        2          6.031478                             -0.031478
       7     h        3          0.884568                              0.115432
       8     h        3          0.868644                              0.131356
       9     h        3          0.877931                              0.122069
      10     h        3          0.862227                              0.137773
 # Total charge                             42.000000                 -0.000000

 !-----------------------------------------------------------------------------!

 !-----------------------------------------------------------------------------!
                           Hirshfeld Charges

  #Atom  Element  Kind  Ref Charge     Population                    Net charge
      1       n      1       7.000          7.278                        -0.278
      2       n      1       7.000          7.340                        -0.340
      3       c      2       6.000          6.339                        -0.339
      4       c      2       6.000          6.331                        -0.331
      5       c      2       6.000          6.332                        -0.332
      6       c      2       6.000          6.326                        -0.326
      7       h      3       1.000          0.510                         0.490
      8       h      3       1.000          0.508                         0.492
      9       h      3       1.000          0.516                         0.484
     10       h      3       1.000          0.508                         0.492

  Total Charge                                                            0.011
 !-----------------------------------------------------------------------------!

 *******************************************************************************
 **                                                                           **
 **         ######## #######   #######   ######## #######  ########           **
 **            ##    ##     ## ##     ## ##       ##   ##     ##              **
 **            ##    ##     ## ##     ## ######   #######     ##              **
 **            ##    ##     ## ##     ## ##       ##          ##              **
 **            ##    #######   #######   ##       ##          ##              **
 **                                                                           **
 *******************************************************************************
 KERNEL|                                                                    FULL
 FUNCTIONAL| BECKE88:
 FUNCTIONAL| A. Becke, Phys. Rev. A 38, 3098 (1988) {LDA version}               
 FUNCTIONAL| LYP:
 FUNCTIONAL| C. Lee, W. Yang, R.G. Parr, Phys. Rev. B, 37, 785 (1988) {LDA versi
 FUNCTIONAL| on}                                                                
 FUNCTIONAL| VWN:
 FUNCTIONAL| S. H. Vosko, L. Wilk and M. Nusair, Can. J. Phys. 58, 1200 (1980) {
 FUNCTIONAL| LDA version}                                                       
 FUNCTIONAL| XALPHA:
 FUNCTIONAL| Dirac/Slater local exchange; parameter=  0.666 {LDA}               
 KERNEL|                                                          Exact Exchange
 KERNEL| Spin symmetry of excitations                                    Singlet
 TDDFPT| Number of states calculated                                           9
 TDDFPT| Number of Davidson iterations                                       100
 TDDFPT| Davidson iteration convergence                                0.367E-09
 TDDFPT| Max. number of Krylov space vectors                                5000
 TDDFPT| Molecular Orbitals:        Spin       AOs       Occ      Virt     Total
 TDDFPT|                               1       210        21       189       210
 
 -------------------------------------------------------------------------------
 -                            TDDFPT Initial Guess                             -
 -------------------------------------------------------------------------------
          State         Occupied      ->      Virtual          Excitation
          number         orbital              orbital          energy (eV)
 -------------------------------------------------------------------------------
             1               21                   22              3.85004
             2               21                   23              4.74448
             3               20                   22              5.37023
             4               19                   22              5.65613
             5               20                   23              6.26467
             6               19                   23              6.55057
             7               18                   22              7.38265
             8               21                   24              7.41975
             9               21                   25              7.90274

      Number of active states:                                       3969
 -------------------------------------------------------------------------------
 
 -------------------------------------------------------------------------------
 -                      TDDFPT WAVEFUNCTION OPTIMIZATION                       -
 -------------------------------------------------------------------------------

          Step            Time         Convergence           Conv. states
 -------------------------------------------------------------------------------

    State    Exc. energy (eV)      Convergence (eV)
        1       2.4795984            -1.3704E+00
        2       3.4591600            -1.2853E+00
        3       4.0521372            -1.3181E+00
        4       4.9078050            -7.4832E-01
        5       5.7902913            -4.7438E-01
        6       6.5489677            -1.6001E-03
        7       6.9800394            -4.0261E-01
        8       7.5534622             1.3371E-01
        9       9.9967324             2.0940E+00

             1             7.3          7.6953E-02                      0

    State    Exc. energy (eV)      Convergence (eV)
        1       2.4466846            -3.2914E-02
        2       3.3973336            -6.1826E-02
        3       4.0134416            -3.8696E-02
        4       4.8090260            -9.8779E-02
        5       5.6711757            -1.1912E-01
        6       6.1063731            -4.4259E-01
        7       6.4968299            -4.8321E-01
        8       6.9613443            -5.9212E-01
        9       8.5584156            -1.4383E+00

             2             7.2          5.2857E-02                      0

    State    Exc. energy (eV)      Convergence (eV)
        1       2.4437796            -2.9050E-03
        2       3.3927495            -4.5841E-03
        3       4.0111891            -2.2525E-03
        4       4.7985210            -1.0505E-02
        5       5.6509641            -2.0212E-02
        6       6.0300276            -7.6345E-02
        7       6.4613378            -3.5492E-02
        8       6.9064435            -5.4901E-02
        9       7.2543923            -1.3040E+00

             3             7.2          4.7922E-02                      0

    State    Exc. energy (eV)      Convergence (eV)
        1       2.4437184            -6.1199E-05
        2       3.3925842            -1.6530E-04
        3       4.0111433            -4.5812E-05
        4       4.7982428            -2.7820E-04
        5       5.6499110            -1.0531E-03
        6       6.0269437            -3.0839E-03
        7       6.4564302            -4.9076E-03
        8       6.8755961            -3.0847E-02
        9       7.0652638            -1.8913E-01

             4             7.2          6.9503E-03                      0

    State    Exc. energy (eV)      Convergence (eV)
        1       2.4437179            -5.5108E-07
        2       3.3925819            -2.3586E-06
        3       4.0111428            -4.8109E-07
        4       4.7982368            -6.0079E-06
        5       5.6498836            -2.7397E-05
        6       6.0268303            -1.1342E-04
        7       6.4562937            -1.3645E-04
        8       6.8730227            -2.5734E-03
        9       7.0518609            -1.3403E-02

             5             7.2          4.9255E-04                      0

    State    Exc. energy (eV)      Convergence (eV)
        1       2.4437179            -5.3995E-09
        2       3.3925819            -2.6372E-08
        3       4.0111428            -3.8132E-09
        4       4.7982367            -9.6438E-08
        5       5.6498832            -4.8025E-07
        6       6.0268261            -4.2164E-06
        7       6.4562903            -3.4185E-06
        8       6.8727749            -2.4773E-04
        9       7.0456133            -6.2476E-03

             6             7.2          2.2959E-04                      2

    State    Exc. energy (eV)      Convergence (eV)
        1       2.4437179            -4.8557E-11
        2       3.3925819            -1.5325E-10
        3       4.0111428            -4.9021E-11
        4       4.7982367            -1.0006E-09
        5       5.6498832            -8.6780E-09
        6       6.0268260            -9.4385E-08
        7       6.4562902            -8.6883E-08
        8       6.8727647            -1.0255E-05
        9       7.0449710            -6.4225E-04

             7             7.1          2.3602E-05                      5

    State    Exc. energy (eV)      Convergence (eV)
        1       2.4437179            -2.6434E-13
        2       3.3925819            -1.2975E-12
        3       4.0111428            -4.4938E-13
        4       4.7982367            -1.0772E-11
        5       5.6498832            -1.1406E-10
        6       6.0268260            -1.5512E-09
        7       6.4562902            -1.5781E-09
        8       6.8727644            -2.6726E-07
        9       7.0449515            -1.9573E-05

             8             7.1          7.1931E-07                      7

    State    Exc. energy (eV)      Convergence (eV)
        1       2.4437179            -1.3217E-14
        2       3.3925819            -7.5527E-15
        3       4.0111428            -7.5527E-16
        4       4.7982367            -1.0574E-13
        5       5.6498832            -1.0332E-12
        6       6.0268260            -1.6014E-11
        7       6.4562902            -3.2311E-11
        8       6.8727644            -7.6550E-09
        9       7.0449510            -4.9602E-07

             9             7.1          1.8229E-08                      8

    State    Exc. energy (eV)      Convergence (eV)
        1       2.4437179             1.2084E-14
        2       3.3925819            -8.6856E-15
        3       4.0111428             9.0632E-15
        4       4.7982367             6.0421E-15
        5       5.6498832            -9.8185E-15
        6       6.0268260            -1.4652E-13
        7       6.4562902            -4.8866E-13
        8       6.8727644            -1.8723E-10
        9       7.0449509            -1.4224E-08

            10             7.1          5.2273E-10                      8

    State    Exc. energy (eV)      Convergence (eV)
        1       2.4437179            -7.9303E-15
        2       3.3925819             1.7749E-14
        3       4.0111428            -1.1329E-14
        4       4.7982367            -8.3079E-15
        5       5.6498832             0.0000E+00
        6       6.0268260             3.0211E-15
        7       6.4562902             2.2658E-15
        8       6.8727644            -3.2990E-12
        9       7.0449509            -3.3300E-10

            11             7.1          1.2237E-11                      9
 ------------------------- Restart Davidson iterations -------------------------

    State    Exc. energy (eV)      Convergence (eV)
        1       2.4437179             7.9303E-15
        2       3.3925819            -1.0951E-14
        3       4.0111428             8.3079E-15
        4       4.7982367             3.7763E-15
        5       5.6498832             3.0211E-15
        6       6.0268260             6.7974E-15
        7       6.4562902            -6.7974E-14
        8       6.8727644            -6.0421E-15
        9       7.0449509             5.8911E-14

            12             7.1          2.4980E-15                      9
 
 -------------------------------------------------------------------------------
 -  TDDFPT run converged in 12 iteration(s) 
 -------------------------------------------------------------------------------

 R-TDDFPT states of multiplicity 1
 Transition dipoles calculated using length formulation

         State    Excitation        Transition dipole (a.u.)        Oscillator
         number   energy (eV)       x           y           z     strength (a.u.)
         ------------------------------------------------------------------------
 TDDFPT|      1       2.44372  -2.4156E-03  1.0577E-01  1.5839E-02   6.85136E-04
 TDDFPT|      2       3.39258   1.2710E-01  7.3698E-02 -4.8008E-02   1.98561E-03
 TDDFPT|      3       4.01114   1.0196E-02 -5.6740E-02  3.1638E-02   4.24951E-04
 TDDFPT|      4       4.79824  -2.9623E-02 -2.6929E-02  4.4417E-02   4.20322E-04
 TDDFPT|      5       5.64988  -9.2712E-03  1.5075E-01  6.0963E-01   5.46007E-02
 TDDFPT|      6       6.02683   3.8769E-02 -1.0361E+00 -2.8998E-01   1.71154E-01
 TDDFPT|      7       6.45629  -9.1671E-02 -2.0313E-01 -5.4617E-01   5.50398E-02
 TDDFPT|      8       6.87276  -2.9148E-02  1.3479E-02 -1.0861E-01   2.15997E-03
 TDDFPT|      9       7.04495   2.3548E-02  1.7148E-01  4.1943E-01   3.55355E-02

 TDDFPT : CheckSum  =  0.596413E+00
 
 -------------------------------------------------------------------------------
 -                            Excitation analysis                              -
 -------------------------------------------------------------------------------
        State             Occupied              Virtual             Excitation
        number             orbital              orbital             amplitude
 -------------------------------------------------------------------------------
             1   2.44372 eV
                                21                   22               0.995790
                                19                   22              -0.071439
             2   3.39258 eV
                                21                   23               0.994872
             3   4.01114 eV
                                20                   22               0.992258
                                19                   22               0.105125
             4   4.79824 eV
                                20                   23              -0.983900
                                19                   23              -0.101445
                                21                   27               0.081956
                                21                   24              -0.056709
             5   5.64988 eV
                                19                   23              -0.686674
                                18                   22               0.561445
                                19                   22               0.417112
                                18                   23               0.102662
                                21                   24               0.086442
                                20                   23               0.065252
                                21                   25               0.056538
             6   6.02683 eV
                                19                   22              -0.824120
                                19                   23              -0.344591
                                18                   22               0.279178
                                21                   24              -0.140992
                                18                   23              -0.136458
                                20                   22               0.086417
                                21                   27               0.075827
                                21                   37               0.073433
                                21                   26              -0.062731
                                21                   22              -0.058617
                                21                   25              -0.055874
                                21                   38              -0.054246
                                20                   24              -0.053835
                                21                   36               0.050266
             7   6.45629 eV
                                21                   24               0.940937
                                21                   27              -0.155554
                                19                   22              -0.149233
                                21                   29              -0.107216
                                21                   26              -0.105155
                                18                   22              -0.101270
                                21                   28               0.076493
                                19                   23              -0.075952
                                20                   23              -0.068317
                                20                   24              -0.066825
                                18                   23              -0.060283
             8   6.87276 eV
                                21                   25               0.725642
                                21                   27              -0.496508
                                21                   26              -0.365365
                                21                   24              -0.172817
                                21                   28               0.141622
                                21                   29               0.121879
                                18                   22              -0.078686
                                20                   23              -0.072885
                                19                   23              -0.062399
             9   7.04495 eV
                                21                   25              -0.623339
                                21                   26              -0.604954
                                21                   27              -0.416237
                                21                   28               0.131560
                                18                   23               0.108515
                                21                   24              -0.105268
                                20                   24               0.081135
                                18                   22               0.076238
                                21                   29              -0.055221
                                20                   25              -0.050643
 -------------------------------------------------------------------------------
 
 -------------------------------------------------------------------------------
 -                            Natural Orbital analysis                         -
 -------------------------------------------------------------------------------
   STATE NR.      1             2.44372 eV
     Particle-Hole state: 1   Spin:1     Eigenvalue: 0.99862   Sum Eigv: 0.99862
   STATE NR.      2             3.39258 eV
     Particle-Hole state: 1   Spin:1     Eigenvalue: 0.99397   Sum Eigv: 0.99397
   STATE NR.      3             4.01114 eV
     Particle-Hole state: 1   Spin:1     Eigenvalue: 0.99708   Sum Eigv: 0.99708
   STATE NR.      4             4.79824 eV
     Particle-Hole state: 1   Spin:1     Eigenvalue: 0.98246   Sum Eigv: 0.98246
   STATE NR.      5             5.64988 eV
     Particle-Hole state: 1   Spin:1     Eigenvalue: 0.72065   Sum Eigv: 0.72065
     Particle-Hole state: 2   Spin:1     Eigenvalue: 0.25890   Sum Eigv: 0.97955
   STATE NR.      6             6.02683 eV
     Particle-Hole state: 1   Spin:1     Eigenvalue: 0.85935   Sum Eigv: 0.85935
     Particle-Hole state: 2   Spin:1     Eigenvalue: 0.05775   Sum Eigv: 0.91710
     Particle-Hole state: 3   Spin:1     Eigenvalue: 0.05434   Sum Eigv: 0.97144
     Particle-Hole state: 4   Spin:1     Eigenvalue: 0.01170   Sum Eigv: 0.98314
   STATE NR.      7             6.45629 eV
     Particle-Hole state: 1   Spin:1     Eigenvalue: 0.94560   Sum Eigv: 0.94560
     Particle-Hole state: 2   Spin:1     Eigenvalue: 0.04373   Sum Eigv: 0.98933
   STATE NR.      8             6.87276 eV
     Particle-Hole state: 1   Spin:1     Eigenvalue: 0.97396   Sum Eigv: 0.97396
     Particle-Hole state: 2   Spin:1     Eigenvalue: 0.01408   Sum Eigv: 0.98804
   STATE NR.      9             7.04495 eV
     Particle-Hole state: 1   Spin:1     Eigenvalue: 0.96248   Sum Eigv: 0.96248
     Particle-Hole state: 2   Spin:1     Eigenvalue: 0.02313   Sum Eigv: 0.98561
 -------------------------------------------------------------------------------
 Ground state orbital alignment:         1.000000[MinVal]      1.000000[Average]
 Excitation vector alignment:                                           1.000000
[...]
 # max 3D layers                                1
 # MPI messages exchanged                  148704
 MPI messages size (bytes):
  total size                         1.156006E+09
  min size                           0.000000E+00
  max size                          31.744000E+03
  average size                       7.773871E+03
 MPI breakdown and total messages size (bytes):
             size <=      128               82248                        0
       128 < size <=     8192               12018                 82693296
      8192 < size <=    32768               54438               1073312352
     32768 < size <=   131072                   0                        0
    131072 < size <=  4194304                   0                        0
   4194304 < size <= 16777216                   0                        0
  16777216 < size                               0                        0
 -------------------------------------------------------------------------------
 -                                                                             -
 -                      DBCSR MESSAGE PASSING PERFORMANCE                      -
 -                                                                             -
 -------------------------------------------------------------------------------
 ROUTINE             CALLS      AVE VOLUME [Bytes]
 MP_Bcast               28                     12.
 MP_Allreduce         6589                      8.
 MP_Alltoall         26521                   2778.
 MP_ISend            24780                   3640.
 MP_IRecv            24780                   3358.
 -------------------------------------------------------------------------------

 -------------------------------------------------------------------------------
 -                                                                             -
 -                                DBM STATISTICS                               -
 -                                                                             -
 -------------------------------------------------------------------------------
    M  x    N  x    K                                          COUNT     PERCENT
 -------------------------------------------------------------------------------

 -------------------------------------------------------------------------------
 -                                                                             -
 -                                GRID STATISTICS                              -
 -                                                                             -
 -------------------------------------------------------------------------------
 LP    KERNEL             BACKEND                              COUNT     PERCENT
 1     collocate ortho    CPU                                 257106      15.71%
 2     collocate ortho    CPU                                 208707      12.75%
 1     integrate ortho    CPU                                 206068      12.59%
 0     collocate ortho    CPU                                 177609      10.85%
 2     integrate ortho    CPU                                 171402      10.47%
 3     collocate ortho    CPU                                 140817       8.61%
 0     integrate ortho    CPU                                 137870       8.43%
 3     integrate ortho    CPU                                 116934       7.15%
 4     collocate ortho    CPU                                  60444       3.69%
 4     integrate ortho    CPU                                  52064       3.18%
 4     collocate general  CPU                                  21216       1.30%
 5     collocate ortho    CPU                                  18396       1.12%
 5     integrate ortho    CPU                                  16488       1.01%
 4     integrate general  CPU                                  16320       1.00%
 2     collocate general  CPU                                  14144       0.86%
 2     integrate general  CPU                                  10880       0.66%
 6     collocate ortho    CPU                                   4599       0.28%
 6     integrate ortho    CPU                                   4242       0.26%
 5     integrate general  CPU                                    384       0.02%
 3     integrate general  CPU                                    256       0.02%
 7     integrate ortho    CPU                                    168       0.01%
 0     collocate general  CPU                                    160       0.01%
 0     integrate general  CPU                                    160       0.01%
 -------------------------------------------------------------------------------

 MEMORY| Estimated peak process memory [MiB]                                1278

 -------------------------------------------------------------------------------
 ----                             MULTIGRID INFO                            ----
 -------------------------------------------------------------------------------
 count for grid        1:         109546          cutoff [a.u.]          200.00
 count for grid        2:          22507          cutoff [a.u.]           66.67
 count for grid        3:           8627          cutoff [a.u.]           22.22
 count for grid        4:           1858          cutoff [a.u.]            7.41
 total gridlevel count  :         142538

 -------------------------------------------------------------------------------
 -                                                                             -
 -                         MESSAGE PASSING PERFORMANCE                         -
 -                                                                             -
 -------------------------------------------------------------------------------

 ROUTINE             CALLS      AVE VOLUME [Bytes]
 MP_Group                5
 MP_Bcast             5046                 931913.
 MP_Allreduce        15789                 139670.
 MP_Sync              1482
 MP_Alltoall          4352               15011274.
 MP_SendRecv          9915                 234011.
 MP_ISendRecv        16635                 125167.
 MP_Wait             35065
 MP_comm_split          49
 MP_ISend            15887                 822525.
 MP_IRecv            16050                 813817.
 -------------------------------------------------------------------------------


 -------------------------------------------------------------------------------
 -                                                                             -
 -                           R E F E R E N C E S                               -
 -                                                                             -
 -------------------------------------------------------------------------------
 
 CP2K version 2024.1 (Development Version), the CP2K developers group (2024).
 CP2K is freely available from https://www.cp2k.org/ .

 Kuehne,Thomas D.; Iannuzzi,Marcella; Del Ben,Mauro;
 Rybkin,Vladimir V.; Seewald,Patrick; Stein,Frederick; Laino,Teodoro;
 Khaliullin,Rustam Z.; Schuett,Ole; Schiffmann,Florian; Golze,Dorothea;
 Wilhelm,Jan; Chulkov,Sergey; Bani-Hashemian,Mohammad Hossein;
 Weber,Valery; Borstnik,Urban; Taillefumier,Mathieu;
 Jakobovits,Alice Shoshana; Lazzaro,Alfio; Pabst,Hans; Mueller,Tiziano;
 Schade,Robert; Guidon,Manuel; Andermatt,Samuel; Holmberg,Nico;
 Schenter,Gregory K.; Hehn,Anna; Bussy,Augustin; Belleflamme,Fabian;
 Tabacchi,Gloria; Gloess,Andreas; Lass,Michael; Bethune,Iain;
 Mundy,Christopher J.; Plessl,Christian; Watkins,Matt;
 VandeVondele,Joost; Krack,Matthias; Hutter,Juerg. 
 The Journal of Chemical Physics, 152 (19), (2020). 
 CP2K: An electronic structure and molecular dynamics software package -
 Quickstep: Efficient and accurate electronic structure calculations.
 https://doi.org/10.1063/5.0007045

 Goerigk, Lars; Hansen, Andreas; Bauer, Christoph; Ehrlich, Stephan;
 Najibi, Asim; Grimme, Stefan. , 19 (48), (2017). 
 A look at the density functional theory zoo with the advanced GMTKN55 database
 for general main group thermochemistry, kinetics and noncovalent interactions.
 https://doi.org/10.1039/C7CP04913G

 Schuett, Ole; Messmer, Peter; Hutter, Juerg; VandeVondele, Joost. 
 Electronic Structure Calculations on Graphics Processing Units, John
 Wiley & Sons, Ltd, 173-190 (2016). 
 GPU-Accelerated Sparse Matrix-Matrix Multiplication for
 Linear Scaling Density Functional Theory.
 https://doi.org/10.1002/9781118670712.ch8

 Heinecke, A; Henry, G; Hutchinson, M; Pabst, H. 
 Proceedings of Intl. Supercomputing Conference, 981-991 (2016). 
 LIBXSMM: Accelerating Small Matrix Multiplications
 by Runtime Code Generation.
 https://doi.org/10.1109/SC.2016.83

 Borstnik, U; VandeVondele, J; Weber, V; Hutter, J. 
 PARALLEL COMPUTING, 40 (5-6), 47-58 (2014). 
 Sparse matrix multiplication: The distributed block-compressed sparse
 row library.
 https://doi.org/10.1016/j.parco.2014.03.012

 Hutter, J; Iannuzzi, M; Schiffmann, F; VandeVondele, J. 
 WIREs Comput Mol Sci., 4 (1), 15-25 (2014). 
 CP2K: atomistic simulations of condensed matter systems.
 https://doi.org/10.1002/wcms.1159

 Grimme, S; Ehrlich, S; Goerigk, L. 
 JOURNAL OF COMPUTATIONAL CHEMISTRY, 32, 1456 (2011). 
 Effect of the damping function in dispersion corrected density functional theory.
 https://doi.org/10.1002/jcc.21759

 Grimme, S; Antony, J; Ehrlich, S; Krieg, H. 
 JOURNAL OF CHEMICAL PHYSICS, 132 (15), 154104 (2010). 
 A consistent and accurate ab initio parametrization of density
 functional dispersion correction (DFT-D) for the 94 elements H-Pu.
 https://doi.org/10.1063/1.3382344

 Guidon, M; Hutter, J; VandeVondele, J. 
 JOURNAL OF CHEMICAL THEORY AND COMPUTATION, 5 (11), 3010-3021 (2009). 
 Robust Periodic Hartree-Fock Exchange for Large-Scale Simulations Using
 Gaussian Basis Sets.
 https://doi.org/10.1021/ct900494g

 Guidon, M; Schiffmann, F; Hutter, J; VandeVondele, J. 
 JOURNAL OF CHEMICAL PHYSICS, 128 (21), 214104 (2008). 
 Ab initio molecular dynamics using hybrid density functionals.
 https://doi.org/10.1063/1.2931945

 VandeVondele, J; Hutter, J. 
 JOURNAL OF CHEMICAL PHYSICS, 127 (11), 114105 (2007). 
 Gaussian basis sets for accurate calculations on molecular systems in
 gas and condensed phases.
 https://doi.org/10.1063/1.2770708

 Frigo, M; Johnson, SG. 
 PROCEEDINGS OF THE IEEE, 93 (2), 216-231 (2005). 
 The design and implementation of FFTW3.
 https://doi.org/10.1109/JPROC.2004.840301

 Iannuzzi, M; Chassaing, T; Wallman, T; Hutter, J. 
 CHIMIA, 59 (7-8), 499-503 (2005). 
 Ground and excited state density functional calculations with the
 Gaussian and augmented-plane-wave method.
 https://doi.org/10.2533/000942905777676164

 VandeVondele, J; Hutter, J. 
 JOURNAL OF CHEMICAL PHYSICS, 118 (10), 4365-4369 (2003). 
 An efficient orbital transformation method for electronic structure
 calculations.
 https://doi.org/10.1063/1.1543154

 Martin,Richard L.. 
 The Journal of Chemical Physics, 118 (11), 4775-4777 (2003). 
 Natural transition orbitals.
 https://doi.org/10.1063/1.1558471

 Lippert, G; Hutter, J; Parrinello, M. 
 THEORETICAL CHEMISTRY ACCOUNTS, 103 (2), 124-140 (1999). 
 The Gaussian and augmented-plane-wave density functional method for ab
 initio molecular dynamics simulations.
 https://doi.org/10.1007/s002140050523

 Krack, M; Parrinello, M. 
 PHYSICAL CHEMISTRY CHEMICAL PHYSICS, 2 (10), 2105-2112 (2000). 
 All-electron ab-initio molecular dynamics.
 https://doi.org/10.1039/b001167n

 Martyna, GJ; Tuckerman, ME. 
 JOURNAL OF CHEMICAL PHYSICS, 110 (6), 2810-2821 (1999). 
 A reciprocal space based method for treating long range interactions in
 ab initio and force-field-based calculations in clusters.
 https://doi.org/10.1063/1.477923

 BECKE, AD. PHYSICAL REVIEW A, 38 (6), 3098-3100 (1988). 
 DENSITY-FUNCTIONAL EXCHANGE-ENERGY APPROXIMATION WITH CORRECT
 ASYMPTOTIC-BEHAVIOR.
 https://doi.org/10.1103/PhysRevA.38.3098

 LEE, CT; YANG, WT; PARR, RG. 
 PHYSICAL REVIEW B, 37 (2), 785-789 (1988). 
 DEVELOPMENT OF THE COLLE-SALVETTI CORRELATION-ENERGY FORMULA INTO A
 FUNCTIONAL OF THE ELECTRON-DENSITY.
 https://doi.org/10.1103/PhysRevB.37.785

 VOSKO, SH; WILK, L; NUSAIR, M. 
 CANADIAN JOURNAL OF PHYSICS, 58 (8), 1200-1211 (1980). 
 ACCURATE SPIN-DEPENDENT ELECTRON LIQUID CORRELATION ENERGIES FOR LOCAL
 SPIN-DENSITY CALCULATIONS - A CRITICAL ANALYSIS.
 https://doi.org/10.1139/p80-159


 -------------------------------------------------------------------------------
 -                                                                             -
 -                                T I M I N G                                  -
 -                                                                             -
 -------------------------------------------------------------------------------
 SUBROUTINE                       CALLS  ASD         SELF TIME        TOTAL TIME
                                MAXIMUM       AVERAGE  MAXIMUM  AVERAGE  MAXIMUM
 CP2K                                 1  1.0    0.011    0.016  192.100  192.100
 qs_forces                            1  2.0    0.001    0.001  191.549  191.550
 qs_energies                          1  3.0    0.000    0.000  125.147  125.147
 qs_energies_properties               1  4.0    0.000    0.000  110.850  110.850
 tddfpt                               1  5.0    0.000    0.000  110.850  110.850
 tddfpt_energies                      1  6.0    0.000    0.000   86.451   86.451
 tddfpt_davidson_solver               2  7.0    0.001    0.003   85.965   85.966
 tddfpt_compute_Aop_evects           12  8.0    0.000    0.000   85.727   85.728
 excited_state_energy                 2  3.5    0.001    0.001   57.214   57.215
 fft_wrap_pw1pw2                   3935 12.1    0.025    0.027   54.375   57.015
 fft_wrap_pw1pw2_200               2743 13.4    1.995    2.075   52.703   55.703
 fhxc_kernel                         12  9.0    0.003    0.003   54.380   54.380
 fft3d_ps                          3935 14.1   24.737   27.331   40.823   43.924
 integrate_four_center              281 10.6    0.045    0.047   43.486   43.494
 response_equation                    1  4.0    0.000    0.000   42.829   42.829
 linres_solver                        1  5.0    0.001    0.003   42.807   42.807
 apply_op                            45  6.0    0.001    0.001   42.759   42.759
 integrate_four_center_main         281 11.6    0.018    0.022   39.195   41.325
 integrate_four_center_bin        26695 12.6   39.177   41.310   39.177   41.310
 derivatives_four_center              4  8.5    0.004    0.006   34.259   34.865
 derivatives_four_center_main         4  9.5    0.000    0.000   34.199   34.806
 derivatives_four_center_bin        416 10.5   32.436   34.234   32.436   34.234
 xc_pw_derive                      1425 12.4    0.009    0.010   30.701   31.919
 tddfpt_apply_hfx                    12  9.0    0.001    0.001   31.276   31.276
 tddft_hfx_matrix                   216 10.0    0.004    0.004   30.962   30.962
 apply_op_2_dft                      44  7.0    0.002    0.002   25.344   25.400
 tddfpt_forces_main                   1  6.0    0.000    0.000   24.347   24.347
 tddfpt_forces                        1  7.0    0.000    0.000   23.445   23.445
 tddfpt_force_direct                  1  8.0    0.000    0.000   23.032   23.032
 tddfpt_kernel_force                  1  9.0    0.000    0.000   23.026   23.026
 fhxc_force                           1 10.0    0.001    0.001   23.026   23.026
 prepare_gapw_den                   225  8.8    0.004    0.004   22.057   22.222
 rebuild_ks_matrix                   17  6.8    0.000    0.000   21.931   21.931
 qs_ks_build_kohn_sham_matrix        17  7.8    0.002    0.002   21.931   21.931
 xc_pw_divergence                   214 12.3    0.004    0.004   18.273   19.620
 tddfpt_apply_xc_analytic           108 10.0    0.712    0.780   18.219   18.413
 calculate_rho_elec                 219  9.6    0.168    0.174   16.254   16.257
 qs_rho_update_rho_low              214  8.6    0.002    0.002   16.247   16.248
 qs_fxc_analytic                     45  8.0    0.001    0.002   14.560   14.680
 xc_calc_2nd_deriv_analytical       802 11.1    1.238    1.385   14.368   14.556
 response_force                       1  4.0    0.003    0.004   14.384   14.385
 scf_env_do_scf                       1  4.0    0.000    0.000   14.155   14.155
 hfx_ks_matrix                       17  8.8    0.000    0.001   14.121   14.121
 xc_rho_set_and_dset_create         107 12.1    1.063    1.192   11.402   13.364
 density_rs2pw                      219 10.6    0.006    0.007   12.846   13.298
 mp_alltoall_z22v                  3935 16.1    9.967   13.084    9.967   13.084
 qs_ks_update_qs_env                 18  6.0    0.000    0.000   12.782   12.782
 integrate_v_rspace                 178  9.4    0.003    0.003   11.815   12.337
 yz_to_x                           2010 15.3    2.725    3.080    8.811   12.019
 calculate_rho0_atom                663  9.8   11.244   11.743   11.244   11.743
 qs_vxc_create                       60 11.8    0.001    0.001   11.618   11.623
 xc_vxc_pw_create                    60 12.8    0.103    0.110   11.618   11.622
 xc_calc_2nd_deriv                   46  8.9    0.304    0.332    9.287   10.531
 scf_env_do_scf_inner_loop           16  5.0    0.000    0.001   10.287   10.288
 tddfpt_apply_coulomb               108 10.0    0.001    0.001    9.125   10.247
 qs_ks_update_qs_env_forces           1  3.0    0.000    0.000    9.150    9.151
 x_to_yz                           1925 15.0    3.348    3.842    7.229    9.143
 potential_pw2rs                    178 10.4    0.011    0.011    8.183    8.706
 qs_fgxc_gdiff                        1 11.0    0.000    0.000    8.300    8.300
 qs_fxc_fdiff                         7 12.0    0.000    0.001    8.280    8.280
 put_rho0_on_grid                   221  9.8    0.196    0.225    6.999    7.200
 xc_prep_2nd_deriv                   47  8.9    0.000    0.000    5.699    6.652
 pw_gather_p                       2010 14.3    5.957    6.614    5.957    6.614
 transfer_rs2pw                    1098 11.4    0.007    0.009    6.023    6.548
 apply_hfx                           44  7.0    0.001    0.001    6.347    6.354
 hfx_matrix                          44  8.0    0.001    0.001    6.344    6.350
 transfer_pw2rs                     887 11.3    0.004    0.005    5.784    5.809
 transfer_rs2pw_200                 441 12.2    2.515    2.616    4.902    5.484
 integrate_vhg0_rspace              174  9.9    1.015    1.100    5.412    5.422
 pw_poisson_solve                   175  9.9    0.002    0.002    4.085    5.287
 mp_sum_d                          2286  9.2    3.142    4.929    3.142    4.929
 transfer_pw2rs_200                 353 12.1    2.261    2.288    4.529    4.582
 xc_functional_eval                3324 11.9    0.003    0.005    2.430    4.357
 mp_waitany                       15880 13.2    3.571    4.235    3.571    4.235
 grid_collocate_task_list           219 10.6    2.863    3.871    2.863    3.871
 init_scf_loop                        1  5.0    0.000    0.000    3.867    3.867
 -------------------------------------------------------------------------------

 The number of warnings for this run is : 0
 
 -------------------------------------------------------------------------------
  **** **** ******  **  PROGRAM ENDED AT                 2025-01-08 06:23:01.627
 ***** ** ***  *** **   PROGRAM RAN ON                               nesh-srp243
 **    ****   ******    PROGRAM RAN BY                                  suphc356
 ***** **    ** ** **   PROGRAM PROCESS ID                               2549241
  **** **  *******  **  PROGRAM STOPPED IN /gxfs_work/cau/suphc356/NEWTONX_proje
                                           ct/Pyrazin_molecule/CP2K_GAPW_B3LYP_d
                                           ef2_TZVP/MOLDYN_BA_again/TRAJECTORIES
                                           /TRAJ165/TEMP
