 DBCSR| CPU Multiplication driver                                           XSMM (U)
 DBCSR| Multrec recursion limit                                              512 (U)
 DBCSR| Multiplication stack size                                           1000 (D)
 DBCSR| Maximum elements for images                                    UNLIMITED (U)
 DBCSR| Multiplicative factor virtual images                                   1 (U)
 DBCSR| Use multiplication densification                                       T (D)
 DBCSR| Multiplication size stacks                                             3 (U)
 DBCSR| Use memory pool for CPU allocation                                     F (U)
 DBCSR| Number of 3D layers                                               SINGLE (U)
 DBCSR| Use MPI memory allocation                                              F (U)
 DBCSR| Use RMA algorithm                                                      F (U)
 DBCSR| Use Communication thread                                               T (U)
 DBCSR| Communication thread load                                             87 (D)
 DBCSR| MPI: My process id                                                     0
 DBCSR| MPI: Number of processes                                              16
 DBCSR| OMP: Current number of threads                                         1
 DBCSR| OMP: Max number of threads                                             1
 DBCSR| Split modifier for TAS multiplication algorithm                  1.0E+00 (U)


  **** **** ******  **  PROGRAM STARTED AT               2025-01-06 02:42:47.107
 ***** ** ***  *** **   PROGRAM STARTED ON                           nesh-srp172
 **    ****   ******    PROGRAM STARTED BY                              suphc356
 ***** **    ** ** **   PROGRAM PROCESS ID                               2640988
  **** **  *******  **  PROGRAM STARTED IN /gxfs_work/cau/suphc356/NEWTONX_proje
                                           ct/Pyrazin_molecule/CP2K_GAPW_B3LYP_d
                                           ef2_TZVP/MOLDYN_BA_again/TRAJECTORIES
                                           /TRAJ71/TEMP

 CP2K| version string:                 CP2K version 2024.1 (Development Version)
 CP2K| source code revision number:                                  git:990486a
 CP2K| cp2kflags: omp libint fftw3 libxc libgrpp parallel mpi_f08 scalapack cosm
 CP2K|            a xsmm spglib mkl
 CP2K| is freely available from                            https://www.cp2k.org/
 CP2K| Program compiled at                          Mon Mar 11 08:48:45 CET 2024
 CP2K| Program compiled on                                           nesh-login2
 CP2K| Program compiled for                                                local
 CP2K| Data directory path                 /gxfs_work/cau/suphc356/cp2k_gcc/data
 CP2K| Input file name                                                  cp2k.inp

 GLOBAL| Force Environment number                                              1
 GLOBAL| Basis set file name                                     EMSL_BASIS_SETS
 GLOBAL| Potential file name                                      ALL_POTENTIALS
 GLOBAL| MM Potential file name                                     MM_POTENTIAL
 GLOBAL| Coordinate file name                                      __STD_INPUT__
 GLOBAL| Method name                                                        CP2K
 GLOBAL| Project name                                               testsuite_ad
 GLOBAL| Run type                                                   ENERGY_FORCE
 GLOBAL| FFT library                                                       FFTW3
 GLOBAL| Diagonalization library                                       ScaLAPACK
 GLOBAL| DGEMM library                                                      BLAS
 GLOBAL| Orthonormality check for eigenvectors                          DISABLED
 GLOBAL| Matrix multiplication library                                     COSMA
 GLOBAL| All-to-all communication in single precision                          F
 GLOBAL| FFTs using library dependent lengths                                  F
 GLOBAL| Grid backend                                                       AUTO
 GLOBAL| Global print level                                               MEDIUM
 GLOBAL| MPI I/O enabled                                                       T
 GLOBAL| Total number of message passing processes                            16
 GLOBAL| Number of threads for this process                                    1
 GLOBAL| This output is from process                                           0
 GLOBAL| Stack size for threads created by OpenMP (OMP_STACKSIZE)           256M
 GLOBAL| CPU model name                              Intel(R) Xeon(R) Gold 6426Y
 GLOBAL| CPUID                                                              1003
 GLOBAL| Compiled for CPUID                                                    0

 *** HINT in environment.F:920 :: The compiler target flags (generic) used ***
 *** to build this binary cannot exploit all extensions of this CPU model  ***
 *** (x86_avx512). Consider compiler target flags as part of FCFLAGS and   ***
 *** CFLAGS (ARCH file).                                                   ***


 MEMORY| system memory details [Kb]
 MEMORY|                        rank 0           min           max       average
 MEMORY| MemTotal            263786136     263786136     263786136     263786136
 MEMORY| MemFree             239024680     239024680     239024680     239024680
 MEMORY| Buffers                225520        225520        225520        225520
 MEMORY| Cached                 644036        644036        644036        644036
 MEMORY| Slab                  9418036       9418036       9418036       9418036
 MEMORY| SReclaimable           147072        147072        147072        147072
 MEMORY| MemLikelyFree       240041308     240041308     240041308     240041308


 *** Fundamental physical constants (SI units) ***

 *** Literature: B. J. Mohr and B. N. Taylor,
 ***             CODATA recommended values of the fundamental physical
 ***             constants: 2006, Web Version 5.1
 ***             http://physics.nist.gov/constants

 Speed of light in vacuum [m/s]                             2.99792458000000E+08
 Magnetic constant or permeability of vacuum [N/A**2]       1.25663706143592E-06
 Electric constant or permittivity of vacuum [F/m]          8.85418781762039E-12
 Planck constant (h) [J*s]                                  6.62606896000000E-34
 Planck constant (h-bar) [J*s]                              1.05457162825177E-34
 Elementary charge [C]                                      1.60217648700000E-19
 Electron mass [kg]                                         9.10938215000000E-31
 Electron g factor [ ]                                     -2.00231930436220E+00
 Proton mass [kg]                                           1.67262163700000E-27
 Fine-structure constant                                    7.29735253760000E-03
 Rydberg constant [1/m]                                     1.09737315685270E+07
 Avogadro constant [1/mol]                                  6.02214179000000E+23
 Boltzmann constant [J/K]                                   1.38065040000000E-23
 Atomic mass unit [kg]                                      1.66053878200000E-27
 Bohr radius [m]                                            5.29177208590000E-11

 *** Conversion factors ***

 [u] -> [a.u.]                                              1.82288848426455E+03
 [Angstrom] -> [Bohr] = [a.u.]                              1.88972613288564E+00
 [a.u.] = [Bohr] -> [Angstrom]                              5.29177208590000E-01
 [a.u.] -> [s]                                              2.41888432650478E-17
 [a.u.] -> [fs]                                             2.41888432650478E-02
 [a.u.] -> [J]                                              4.35974393937059E-18
 [a.u.] -> [N]                                              8.23872205491840E-08
 [a.u.] -> [K]                                              3.15774647902944E+05
 [a.u.] -> [kJ/mol]                                         2.62549961709828E+03
 [a.u.] -> [kcal/mol]                                       6.27509468713739E+02
 [a.u.] -> [Pa]                                             2.94210107994716E+13
 [a.u.] -> [bar]                                            2.94210107994716E+08
 [a.u.] -> [atm]                                            2.90362800883016E+08
 [a.u.] -> [eV]                                             2.72113838565563E+01
 [a.u.] -> [Hz]                                             6.57968392072181E+15
 [a.u.] -> [1/cm] (wave numbers)                            2.19474631370540E+05
 [a.u./Bohr**2] -> [1/cm]                                   5.14048714338585E+03
 

 CELL_TOP| Volume [angstrom^3]:                                      2744.000000
 CELL_TOP| Vector a [angstrom    14.000     0.000     0.000   |a| =    14.000000
 CELL_TOP| Vector b [angstrom     0.000    14.000     0.000   |b| =    14.000000
 CELL_TOP| Vector c [angstrom     0.000     0.000    14.000   |c| =    14.000000
 CELL_TOP| Angle (b,c), alpha [degree]:                                90.000000
 CELL_TOP| Angle (a,c), beta  [degree]:                                90.000000
 CELL_TOP| Angle (a,b), gamma [degree]:                                90.000000
 CELL_TOP| Numerically orthorhombic:                                         YES
 CELL_TOP| Periodicity                                                      NONE

 CELL| Volume [angstrom^3]:                                          2744.000000
 CELL| Vector a [angstrom]:      14.000     0.000     0.000   |a| =    14.000000
 CELL| Vector b [angstrom]:       0.000    14.000     0.000   |b| =    14.000000
 CELL| Vector c [angstrom]:       0.000     0.000    14.000   |c| =    14.000000
 CELL| Angle (b,c), alpha [degree]:                                    90.000000
 CELL| Angle (a,c), beta  [degree]:                                    90.000000
 CELL| Angle (a,b), gamma [degree]:                                    90.000000
 CELL| Numerically orthorhombic:                                             YES
 CELL| Periodicity                                                          NONE

 CELL_REF| Volume [angstrom^3]:                                      2744.000000
 CELL_REF| Vector a [angstrom    14.000     0.000     0.000   |a| =    14.000000
 CELL_REF| Vector b [angstrom     0.000    14.000     0.000   |b| =    14.000000
 CELL_REF| Vector c [angstrom     0.000     0.000    14.000   |c| =    14.000000
 CELL_REF| Angle (b,c), alpha [degree]:                                90.000000
 CELL_REF| Angle (a,c), beta  [degree]:                                90.000000
 CELL_REF| Angle (a,b), gamma [degree]:                                90.000000
 CELL_REF| Numerically orthorhombic:                                         YES
 CELL_REF| Periodicity                                                      NONE

 *******************************************************************************
 *******************************************************************************
 **                                                                           **
 **     #####                         ##              ##                      **
 **    ##   ##            ##          ##              ##                      **
 **   ##     ##                       ##            ######                    **
 **   ##     ##  ##   ##  ##   #####  ##  ##   ####   ##    #####    #####    **
 **   ##     ##  ##   ##  ##  ##      ## ##   ##      ##   ##   ##  ##   ##   **
 **   ##  ## ##  ##   ##  ##  ##      ####     ###    ##   ######   ######    **
 **    ##  ###   ##   ##  ##  ##      ## ##      ##   ##   ##       ##        **
 **     #######   #####   ##   #####  ##  ##  ####    ##    #####   ##        **
 **           ##                                                    ##        **
 **                                                                           **
 **                                                ... make the atoms dance   **
 **                                                                           **
 **            Copyright (C) by CP2K developers group (2000-2024)             **
 **                      J. Chem. Phys. 152, 194103 (2020)                    **
 **                                                                           **
 *******************************************************************************

 DFT| Spin restricted Kohn-Sham (RKS) calculation                            RKS
 DFT| Multiplicity                                                             1
 DFT| Number of spin states                                                    1
 DFT| Charge                                                                   0
 DFT| Self-interaction correction (SIC)                                       NO
 DFT| Cutoffs: density                                              1.000000E-10
 DFT|          gradient                                             1.000000E-10
 DFT|          tau                                                  1.000000E-10
 DFT|          cutoff_smoothing_range                               0.000000E+00
 DFT| XC density smoothing                                                  NONE
 DFT| XC derivatives                                                          PW

 FUNCTIONAL| BECKE88:
 FUNCTIONAL| A. Becke, Phys. Rev. A 38, 3098 (1988) {LDA version}               
 FUNCTIONAL| LYP:
 FUNCTIONAL| C. Lee, W. Yang, R.G. Parr, Phys. Rev. B, 37, 785 (1988) {LDA versi
 FUNCTIONAL| on}                                                                
 FUNCTIONAL| VWN:
 FUNCTIONAL| S. H. Vosko, L. Wilk and M. Nusair, Can. J. Phys. 58, 1200 (1980) {
 FUNCTIONAL| LDA version}                                                       
 FUNCTIONAL| XALPHA:
 FUNCTIONAL| Dirac/Slater local exchange; parameter=  0.666 {LDA}               

 vdW POTENTIAL|                                                   Pair Potential
 vdW POTENTIAL|          DFT-D3 (Version 3.1)
 vdW POTENTIAL|          Potential Form: S. Grimme et al, JCP 132: 154104 (2010)
 vdW POTENTIAL|          Zero Damping
 vdW POTENTIAL|          Cutoff Radius [Bohr]:                             37.79
 vdW POTENTIAL|          s6 Scaling Factor:                               1.0000
 vdW POTENTIAL|          sr6 Scaling Factor:                              1.2610
 vdW POTENTIAL|          s8 Scaling Factor:                               1.7030
 vdW POTENTIAL|          Cutoff for CN calculation:                   0.1000E-05

 QS| Method:                                                                GAPW
 QS| Density plane wave grid type                        NON-SPHERICAL FULLSPACE
 QS| Number of grid levels:                                                    4
 QS| Density cutoff [a.u.]:                                                200.0
 QS| Multi grid cutoff [a.u.]: 1) grid level                               200.0
 QS|                           2) grid level                                66.7
 QS|                           3) grid level                                22.2
 QS|                           4) grid level                                 7.4
 QS| Grid level progression factor:                                          3.0
 QS| Relative density cutoff [a.u.]:                                        30.0
 QS| Interaction thresholds: eps_pgf_orb:                                1.0E-07
 QS|                         eps_filter_matrix:                          0.0E+00
 QS|                         eps_core_charge:                            1.0E-16
 QS|                         eps_rho_gspace:                             1.0E-14
 QS|                         eps_rho_rspace:                             1.0E-14
 QS|                         eps_gvg_rspace:                             1.0E-07
 QS|                         eps_ppl:                                    1.0E-02
 QS|                         eps_ppnl:                                   1.0E-09
 QS| GAPW|      One center basis extended with primitives (small:s)
 QS| GAPW|                   eps_fit:                                    1.0E-04
 QS| GAPW|                   eps_iso:                                    1.0E-12
 QS| GAPW|                   eps_svd:                                    1.0E-08
 QS| GAPW|                   eps_cpc:                                    1.0E-14
 QS| GAPW|   atom-r-grid: quadrature:                                     GC_LOG
 QS| GAPW|      atom-s-grid:  max l :                                          6
 QS| GAPW|      max_l_rho0 :                                                   4


 ATOMIC KIND INFORMATION

  1. Atomic kind: n                                     Number of atoms:       2

     Orbital Basis Set                                        Ahlrichs-def2-TZVP

       Number of orbital shell sets:                                          11
       Number of orbital shells:                                              11
       Number of primitive Cartesian functions:                               20
       Number of Cartesian basis functions:                                   36
       Number of spherical basis functions:                                   31
       Norm type:                                                              2

       Normalised Cartesian orbitals:

                        Set   Shell   Orbital            Exponent    Coefficient

                          1       1    1s            19730.800647       0.695604
                                                      2957.895874       1.298610
                                                       673.221336       2.219088
                                                       190.682495       3.463661
                                                        62.295442       4.696756
                                                        22.654161       4.952251

                          2       1    1s                8.979148       2.388068
                                                         3.686300       0.733788

                          3       1    1s                0.846601       0.629027

                          4       1    1s                0.336471       0.314863

                          5       1    1s                0.136477       0.160031

                          6       1    1px              49.200381       2.126481
                                                        11.346791       2.327937
                                                         3.427397       2.048573
                                                         1.178553       1.260732
                          6       1    1py              49.200381       2.126481
                                                        11.346791       2.327937
                                                         3.427397       2.048573
                                                         1.178553       1.260732
                          6       1    1pz              49.200381       2.126481
                                                        11.346791       2.327937
                                                         3.427397       2.048573
                                                         1.178553       1.260732

                          7       1    1px               0.416422       0.476823
                          7       1    1py               0.416422       0.476823
                          7       1    1pz               0.416422       0.476823

                          8       1    1px               0.142608       0.124917
                          8       1    1py               0.142608       0.124917
                          8       1    1pz               0.142608       0.124917

                          9       1    1dx2              1.654000       3.970513
                          9       1    1dxy              1.654000       6.877130
                          9       1    1dxz              1.654000       6.877130
                          9       1    1dy2              1.654000       3.970513
                          9       1    1dyz              1.654000       6.877130
                          9       1    1dz2              1.654000       3.970513

                         10       1    1dx2              0.469000       0.437484
                         10       1    1dxy              0.469000       0.757744
                         10       1    1dxz              0.469000       0.757744
                         10       1    1dy2              0.469000       0.437484
                         10       1    1dyz              0.469000       0.757744
                         10       1    1dz2              0.469000       0.437484

                         11       1    1fx3              1.093000       1.798249
                         11       1    1fx2y             1.093000       4.021007
                         11       1    1fx2z             1.093000       4.021007
                         11       1    1fxy2             1.093000       4.021007
                         11       1    1fxyz             1.093000       6.964588
                         11       1    1fxz2             1.093000       4.021007
                         11       1    1fy3              1.093000       1.798249
                         11       1    1fy2z             1.093000       4.021007
                         11       1    1fyz2             1.093000       4.021007
                         11       1    1fz3              1.093000       1.798249

       Atomic covalent radius [Angstrom]:                                  0.750

       Atomic van der Waals radius [Angstrom]:                             1.550

     The atoms of this atomic kind are PAW atoms (GAPW):
       Hard Gaussian function radius:                                      1.400
       Rho0 radius:                                                        1.400
       Maximum GTO radius used for PAW projector construction:            24.566

     GAPW Soft Basis Set                                 Ahlrichs-def2-TZVP_soft

       Number of orbital shell sets:                                          11
       Number of orbital shells:                                              11
       Number of primitive Cartesian functions:                               11
       Number of Cartesian basis functions:                                   36
       Number of spherical basis functions:                                   31
       Norm type:                                                              2

       Normalised Cartesian orbitals:

                        Set   Shell   Orbital            Exponent    Coefficient

                          1       1    1s         

                          2       1    1s                3.686300       0.733788

                          3       1    1s                0.846601       0.629027

                          4       1    1s                0.336471       0.314863

                          5       1    1s                0.136477       0.160031

                          6       1    1px               3.427397       2.048573
                                                         1.178553       1.260732
                          6       1    1py               3.427397       2.048573
                                                         1.178553       1.260732
                          6       1    1pz               3.427397       2.048573
                                                         1.178553       1.260732

                          7       1    1px               0.416422       0.476823
                          7       1    1py               0.416422       0.476823
                          7       1    1pz               0.416422       0.476823

                          8       1    1px               0.142608       0.124917
                          8       1    1py               0.142608       0.124917
                          8       1    1pz               0.142608       0.124917

                          9       1    1dx2              1.654000       3.970513
                          9       1    1dxy              1.654000       6.877130
                          9       1    1dxz              1.654000       6.877130
                          9       1    1dy2              1.654000       3.970513
                          9       1    1dyz              1.654000       6.877130
                          9       1    1dz2              1.654000       3.970513

                         10       1    1dx2              0.469000       0.437484
                         10       1    1dxy              0.469000       0.757744
                         10       1    1dxz              0.469000       0.757744
                         10       1    1dy2              0.469000       0.437484
                         10       1    1dyz              0.469000       0.757744
                         10       1    1dz2              0.469000       0.437484

                         11       1    1fx3              1.093000       1.798249
                         11       1    1fx2y             1.093000       4.021007
                         11       1    1fx2z             1.093000       4.021007
                         11       1    1fxy2             1.093000       4.021007
                         11       1    1fxyz             1.093000       6.964588
                         11       1    1fxz2             1.093000       4.021007
                         11       1    1fy3              1.093000       1.798249
                         11       1    1fy2z             1.093000       4.021007
                         11       1    1fyz2             1.093000       4.021007
                         11       1    1fz3              1.093000       1.798249

     AE Potential information for                                            ALL

       Description:                                       All-electron potential
                                          Krack, Parrinello, PCCP 2, 2105 (2000)

       Gaussian exponent of the core charge distribution:               5.979100
       Electronic configuration (s p d ...):                           4   3   0

  2. Atomic kind: c                                     Number of atoms:       4

     Orbital Basis Set                                        Ahlrichs-def2-TZVP

       Number of orbital shell sets:                                          11
       Number of orbital shells:                                              11
       Number of primitive Cartesian functions:                               20
       Number of Cartesian basis functions:                                   36
       Number of spherical basis functions:                                   31
       Norm type:                                                              2

       Normalised Cartesian orbitals:

                        Set   Shell   Orbital            Exponent    Coefficient

                          1       1    1s            13575.349682       0.543591
                                                      2035.233368       1.014554
                                                       463.225624       1.731573
                                                       131.200196       2.691038
                                                        42.853016       3.604455
                                                        15.584186       3.702556

                          2       1    1s                6.206714       1.838354
                                                         2.576490       0.544758

                          3       1    1s                0.576963       0.471815

                          4       1    1s                0.229728       0.236494

                          5       1    1s                0.095164       0.122114

                          6       1    1px              34.697232       1.359665
                                                         7.958262       1.451259
                                                         2.378083       1.270923
                                                         0.814332       0.802572
                          6       1    1py              34.697232       1.359665
                                                         7.958262       1.451259
                                                         2.378083       1.270923
                                                         0.814332       0.802572
                          6       1    1pz              34.697232       1.359665
                                                         7.958262       1.451259
                                                         2.378083       1.270923
                                                         0.814332       0.802572

                          7       1    1px               0.288875       0.301876
                          7       1    1py               0.288875       0.301876
                          7       1    1pz               0.288875       0.301876

                          8       1    1px               0.100568       0.080727
                          8       1    1py               0.100568       0.080727
                          8       1    1pz               0.100568       0.080727

                          9       1    1dx2              1.097000       1.935401
                          9       1    1dxy              1.097000       3.352214
                          9       1    1dxz              1.097000       3.352214
                          9       1    1dy2              1.097000       1.935401
                          9       1    1dyz              1.097000       3.352214
                          9       1    1dz2              1.097000       1.935401

                         10       1    1dx2              0.318000       0.221644
                         10       1    1dxy              0.318000       0.383899
                         10       1    1dxz              0.318000       0.383899
                         10       1    1dy2              0.318000       0.221644
                         10       1    1dyz              0.318000       0.383899
                         10       1    1dz2              0.318000       0.221644

                         11       1    1fx3              0.761000       0.796288
                         11       1    1fx2y             0.761000       1.780553
                         11       1    1fx2z             0.761000       1.780553
                         11       1    1fxy2             0.761000       1.780553
                         11       1    1fxyz             0.761000       3.084008
                         11       1    1fxz2             0.761000       1.780553
                         11       1    1fy3              0.761000       0.796288
                         11       1    1fy2z             0.761000       1.780553
                         11       1    1fyz2             0.761000       1.780553
                         11       1    1fz3              0.761000       0.796288

       Atomic covalent radius [Angstrom]:                                  0.770

       Atomic van der Waals radius [Angstrom]:                             1.700

     The atoms of this atomic kind are PAW atoms (GAPW):
       Hard Gaussian function radius:                                      1.520
       Rho0 radius:                                                        1.520
       Maximum GTO radius used for PAW projector construction:            24.566

     GAPW Soft Basis Set                                 Ahlrichs-def2-TZVP_soft

       Number of orbital shell sets:                                          11
       Number of orbital shells:                                              11
       Number of primitive Cartesian functions:                               11
       Number of Cartesian basis functions:                                   36
       Number of spherical basis functions:                                   31
       Norm type:                                                              2

       Normalised Cartesian orbitals:

                        Set   Shell   Orbital            Exponent    Coefficient

                          1       1    1s         

                          2       1    1s                2.576490       0.544758

                          3       1    1s                0.576963       0.471815

                          4       1    1s                0.229728       0.236494

                          5       1    1s                0.095164       0.122114

                          6       1    1px               2.378083       1.270923
                                                         0.814332       0.802572
                          6       1    1py               2.378083       1.270923
                                                         0.814332       0.802572
                          6       1    1pz               2.378083       1.270923
                                                         0.814332       0.802572

                          7       1    1px               0.288875       0.301876
                          7       1    1py               0.288875       0.301876
                          7       1    1pz               0.288875       0.301876

                          8       1    1px               0.100568       0.080727
                          8       1    1py               0.100568       0.080727
                          8       1    1pz               0.100568       0.080727

                          9       1    1dx2              1.097000       1.935401
                          9       1    1dxy              1.097000       3.352214
                          9       1    1dxz              1.097000       3.352214
                          9       1    1dy2              1.097000       1.935401
                          9       1    1dyz              1.097000       3.352214
                          9       1    1dz2              1.097000       1.935401

                         10       1    1dx2              0.318000       0.221644
                         10       1    1dxy              0.318000       0.383899
                         10       1    1dxz              0.318000       0.383899
                         10       1    1dy2              0.318000       0.221644
                         10       1    1dyz              0.318000       0.383899
                         10       1    1dz2              0.318000       0.221644

                         11       1    1fx3              0.761000       0.796288
                         11       1    1fx2y             0.761000       1.780553
                         11       1    1fx2z             0.761000       1.780553
                         11       1    1fxy2             0.761000       1.780553
                         11       1    1fxyz             0.761000       3.084008
                         11       1    1fxz2             0.761000       1.780553
                         11       1    1fy3              0.761000       0.796288
                         11       1    1fy2z             0.761000       1.780553
                         11       1    1fyz2             0.761000       1.780553
                         11       1    1fz3              0.761000       0.796288

     AE Potential information for                                            ALL

       Description:                                       All-electron potential
                                          Krack, Parrinello, PCCP 2, 2105 (2000)

       Gaussian exponent of the core charge distribution:               4.109048
       Electronic configuration (s p d ...):                           4   2   0

  3. Atomic kind: h                                     Number of atoms:       4

     Orbital Basis Set                                        Ahlrichs-def2-TZVP

       Number of orbital shell sets:                                           4
       Number of orbital shells:                                               4
       Number of primitive Cartesian functions:                                6
       Number of Cartesian basis functions:                                    6
       Number of spherical basis functions:                                    6
       Norm type:                                                              2

       Normalised Cartesian orbitals:

                        Set   Shell   Orbital            Exponent    Coefficient

                          1       1    1s               34.061341       0.255630
                                                         5.123575       0.461360
                                                         1.164663       0.681121

                          2       1    1s                0.327230       0.308355

                          3       1    1s                0.103072       0.129648

                          4       1    1px               0.800000       1.078456
                          4       1    1py               0.800000       1.078456
                          4       1    1pz               0.800000       1.078456

       Atomic covalent radius [Angstrom]:                                  0.320

       Atomic van der Waals radius [Angstrom]:                             1.090

     The atoms of this atomic kind are PAW atoms (GAPW):
       Hard Gaussian function radius:                                      1.000
       Rho0 radius:                                                        1.000
       Maximum GTO radius used for PAW projector construction:            24.566

     GAPW Soft Basis Set                                 Ahlrichs-def2-TZVP_soft

       Number of orbital shell sets:                                           4
       Number of orbital shells:                                               4
       Number of primitive Cartesian functions:                                5
       Number of Cartesian basis functions:                                    6
       Number of spherical basis functions:                                    6
       Norm type:                                                              2

       Normalised Cartesian orbitals:

                        Set   Shell   Orbital            Exponent    Coefficient

                          1       1    1s                5.123575       0.461360
                                                         1.164663       0.681121

                          2       1    1s                0.327230       0.308355

                          3       1    1s                0.103072       0.129648

                          4       1    1px               0.800000       1.078456
                          4       1    1py               0.800000       1.078456
                          4       1    1pz               0.800000       1.078456

     AE Potential information for                                            ALL

       Description:                                       All-electron potential
                                          Krack, Parrinello, PCCP 2, 2105 (2000)

       Gaussian exponent of the core charge distribution:              12.500000
       Electronic configuration (s p d ...):                           1   0   0


 MOLECULE KIND INFORMATION


 All atoms are their own molecule, skipping detailed information


 TOTAL NUMBERS AND MAXIMUM NUMBERS

  Total number of            - Atomic kinds:                                   3
                             - Atoms:                                         10
                             - Shell sets:                                    82
                             - Shells:                                        82
                             - Primitive Cartesian functions:                144
                             - Cartesian basis functions:                    240
                             - Spherical basis functions:                    210

  Maximum angular momentum of the orbital basis functions:                     3


 MODULE QUICKSTEP: ATOMIC COORDINATES IN ANGSTROM

   Atom Kind Element         X             Y             Z       Z(eff)     Mass
      1    1 n     7      7.066964      7.989694      7.538714   7.0000  14.0067
      2    1 n     7      7.025135      5.850905      6.399485   7.0000  14.0067
      3    2 c     6      6.878772      6.981473      8.439457   6.0000  12.0107
      4    2 c     6      6.778887      5.700129      7.670749   6.0000  12.0107
      5    2 c     6      6.994304      8.066705      6.197429   6.0000  12.0107
      6    2 c     6      7.006840      6.847006      5.525214   6.0000  12.0107
      7    3 h     1      7.221113      6.768078      9.478702   1.0000   1.0079
      8    3 h     1      6.849352      4.734261      7.950544   1.0000   1.0079
      9    3 h     1      6.942176      9.265739      5.829632   1.0000   1.0079
     10    3 h     1      6.822914      6.738180      4.521298   1.0000   1.0079



 SCF PARAMETERS         Density guess:                                   RESTART
                        --------------------------------------------------------
                        max_scf:                                              50
                        max_scf_history:                                       0
                        max_diis:                                              4
                        --------------------------------------------------------
                        eps_scf:                                        1.00E-08
                        eps_scf_history:                                0.00E+00
                        eps_diis:                                       1.00E-01
                        eps_eigval:                                     1.00E-05
                        --------------------------------------------------------
                        level_shift [a.u.]:                             0.000000
                        --------------------------------------------------------
                        Outer loop SCF in use 
                        No variables optimised in outer loop
                        eps_scf                                         1.00E-08
                        max_scf                                              900
                        No outer loop optimization
                        step_size                                       5.00E-01

 PW_GRID| Information for grid number                                          1
 PW_GRID| Grid distributed over                                    16 processors
 PW_GRID| Real space group dimensions                                    16    1
 PW_GRID| the grid is blocked:                                                NO
 PW_GRID| Cutoff [a.u.]                                                    400.0
 PW_GRID| spherical cutoff:                                                   NO
 PW_GRID|   Bounds   1           -120     119                Points:         240
 PW_GRID|   Bounds   2           -120     119                Points:         240
 PW_GRID|   Bounds   3           -120     119                Points:         240
 PW_GRID| Volume element (a.u.^3)  0.1340E-02     Volume (a.u.^3)     18517.4301
 PW_GRID| Grid span                                                    FULLSPACE
 PW_GRID|   Distribution                         Average         Max         Min
 PW_GRID|   G-Vectors                           864000.0      864000      864000
 PW_GRID|   G-Rays                                3600.0        3600        3600
 PW_GRID|   Real Space Points                   864000.0      864000      864000

 PW_GRID| Information for grid number                                          2
 PW_GRID| Number of the reference grid                                         1
 PW_GRID| Grid distributed over                                    16 processors
 PW_GRID| Real space group dimensions                                    16    1
 PW_GRID| the grid is blocked:                                                NO
 PW_GRID| Cutoff [a.u.]                                                    200.0
 PW_GRID| spherical cutoff:                                                   NO
 PW_GRID|   Bounds   1            -90      89                Points:         180
 PW_GRID|   Bounds   2            -90      89                Points:         180
 PW_GRID|   Bounds   3            -90      89                Points:         180
 PW_GRID| Volume element (a.u.^3)  0.3175E-02     Volume (a.u.^3)     18517.4301
 PW_GRID| Grid span                                                    FULLSPACE
 PW_GRID|   Distribution                         Average         Max         Min
 PW_GRID|   G-Vectors                           364500.0      364680      364320
 PW_GRID|   G-Rays                                2025.0        2026        2024
 PW_GRID|   Real Space Points                   364500.0      388800      356400

 PW_GRID| Information for grid number                                          3
 PW_GRID| Number of the reference grid                                         2
 PW_GRID| Grid distributed over                                    16 processors
 PW_GRID| Real space group dimensions                                    16    1
 PW_GRID| the grid is blocked:                                                NO
 PW_GRID| Cutoff [a.u.]                                                     66.7
 PW_GRID| spherical cutoff:                                                   NO
 PW_GRID|   Bounds   1            -50      49                Points:         100
 PW_GRID|   Bounds   2            -50      49                Points:         100
 PW_GRID|   Bounds   3            -50      49                Points:         100
 PW_GRID| Volume element (a.u.^3)  0.1852E-01     Volume (a.u.^3)     18517.4301
 PW_GRID| Grid span                                                    FULLSPACE
 PW_GRID|   Distribution                         Average         Max         Min
 PW_GRID|   G-Vectors                            62500.0       62600       62400
 PW_GRID|   G-Rays                                 625.0         626         624
 PW_GRID|   Real Space Points                    62500.0       70000       60000

 PW_GRID| Information for grid number                                          4
 PW_GRID| Number of the reference grid                                         2
 PW_GRID| Grid distributed over                                    16 processors
 PW_GRID| Real space group dimensions                                    16    1
 PW_GRID| the grid is blocked:                                                NO
 PW_GRID| Cutoff [a.u.]                                                     22.2
 PW_GRID| spherical cutoff:                                                   NO
 PW_GRID|   Bounds   1            -30      29                Points:          60
 PW_GRID|   Bounds   2            -30      29                Points:          60
 PW_GRID|   Bounds   3            -30      29                Points:          60
 PW_GRID| Volume element (a.u.^3)  0.8573E-01     Volume (a.u.^3)     18517.4301
 PW_GRID| Grid span                                                    FULLSPACE
 PW_GRID|   Distribution                         Average         Max         Min
 PW_GRID|   G-Vectors                            13500.0       13560       13440
 PW_GRID|   G-Rays                                 225.0         226         224
 PW_GRID|   Real Space Points                    13500.0       14400       10800

 PW_GRID| Information for grid number                                          5
 PW_GRID| Number of the reference grid                                         2
 PW_GRID| Grid distributed over                                    16 processors
 PW_GRID| Real space group dimensions                                    16    1
 PW_GRID| the grid is blocked:                                                NO
 PW_GRID| Cutoff [a.u.]                                                      7.4
 PW_GRID| spherical cutoff:                                                   NO
 PW_GRID|   Bounds   1            -18      17                Points:          36
 PW_GRID|   Bounds   2            -18      17                Points:          36
 PW_GRID|   Bounds   3            -18      17                Points:          36
 PW_GRID| Volume element (a.u.^3)  0.3969         Volume (a.u.^3)     18517.4301
 PW_GRID| Grid span                                                    FULLSPACE
 PW_GRID|   Distribution                         Average         Max         Min
 PW_GRID|   G-Vectors                             2916.0        2952        2880
 PW_GRID|   G-Rays                                  81.0          82          80
 PW_GRID|   Real Space Points                     2916.0        3888        2592

 POISSON| Solver                                          Martyna-Tuckerman (MT)
 POISSON| MT| Alpha                                                        7.000
 POISSON| MT| Relative cutoff                                                2.0
 POISSON| Periodicity                                                       NONE

 RS_GRID| Information for grid number                                          2
 RS_GRID|   Bounds   1            -90      89                Points:         180
 RS_GRID|   Bounds   2            -90      89                Points:         180
 RS_GRID|   Bounds   3            -90      89                Points:         180
 RS_GRID| Real space distribution over                                  4 groups
 RS_GRID| Real space distribution along direction                              2
 RS_GRID| Border size                                                         31
 RS_GRID| Real space distribution over                                  4 groups
 RS_GRID| Real space distribution along direction                              3
 RS_GRID| Border size                                                         31
 RS_GRID|   Distribution                         Average         Max         Min
 RS_GRID|   Planes                                 107.0         107         107
 RS_GRID|   Distribution                         Average         Max         Min
 RS_GRID|   Planes                                 107.0         107         107

 RS_GRID| Information for grid number                                          3
 RS_GRID|   Bounds   1            -50      49                Points:         100
 RS_GRID|   Bounds   2            -50      49                Points:         100
 RS_GRID|   Bounds   3            -50      49                Points:         100
 RS_GRID| Real space fully replicated
 RS_GRID| Group size                                                           1

 RS_GRID| Information for grid number                                          4
 RS_GRID|   Bounds   1            -30      29                Points:          60
 RS_GRID|   Bounds   2            -30      29                Points:          60
 RS_GRID|   Bounds   3            -30      29                Points:          60
 RS_GRID| Real space fully replicated
 RS_GRID| Group size                                                           1

 RS_GRID| Information for grid number                                          5
 RS_GRID|   Bounds   1            -18      17                Points:          36
 RS_GRID|   Bounds   2            -18      17                Points:          36
 RS_GRID|   Bounds   3            -18      17                Points:          36
 RS_GRID| Real space fully replicated
 RS_GRID| Group size                                                           1

  HFX_INFO| Replica ID:                                                        1
  HFX_INFO| FRACTION:                                               0.2000000000
  HFX_INFO| Interaction Potential:                                       COULOMB
  HFX_INFO| EPS_SCHWARZ:                                                 1.0E-10
  HFX_INFO| EPS_SCHWARZ_FORCES                                           1.0E-08
  HFX_INFO| EPS_STORAGE_SCALING:                                         1.0E+00
  HFX_INFO| NBINS:                                                            64
  HFX_INFO| BLOCK_SIZE:                                                        1
  HFX_INFO| Number of periodic shells considered:                           NONE
  HFX_INFO| Number of periodic cells considered:                            NONE


 Number of electrons:                                                         42
 Number of occupied orbitals:                                                 21
 Number of molecular orbitals:                                                21

 Number of orbital functions:                                                210
 Number of independent orbital functions:                                    210

 Extrapolation method: initial_guess


 SCF WAVEFUNCTION OPTIMIZATION

  ----------------------------------- OT ---------------------------------------
  Minimizer      : DIIS                : direct inversion
                                         in the iterative subspace
                                         using   7 DIIS vectors
                                         safer DIIS on
  Preconditioner : FULL_ALL            : diagonalization, state selective
  Precond_solver : DEFAULT
  stepsize       :    0.15000000                  energy_gap     :    0.08000000
  eps_taylor     :   0.10000E-15                  max_taylor     :             4
  ----------------------------------- OT ---------------------------------------

  Step     Update method      Time    Convergence         Total energy    Change
  ------------------------------------------------------------------------------

  HFX_MEM_INFO| Est. max. program size before HFX [MiB]:                     642
  HFX_MEM_INFO| Number of cart. primitive ERI's calculated:           1717855413
  HFX_MEM_INFO| Number of sph. ERI's calculated:                       315821790
  HFX_MEM_INFO| Number of sph. ERI's stored in-core:                   315821790
  HFX_MEM_INFO| Number of sph. ERI's stored on disk:                           0
  HFX_MEM_INFO| Number of sph. ERI's calculated on the fly:                    0
  HFX_MEM_INFO| Total memory consumption ERI's RAM [MiB]:                    938
  HFX_MEM_INFO| Whereof max-vals [MiB]:                                        5
  HFX_MEM_INFO| Total compression factor ERI's RAM:                         2.57
  HFX_MEM_INFO| Total memory consumption ERI's disk [MiB]:                     0
  HFX_MEM_INFO| Total compression factor ERI's disk:                        0.00
  HFX_MEM_INFO| Size of density/Fock matrix [MiB]:                             0
  HFX_MEM_INFO| Size of buffers [MiB]:                                         0
  HFX_MEM_INFO| Est. max. program size after HFX  [MiB]:                     700

     1 OT DIIS     0.15E+00    3.9     0.01353673      -264.0512686423 -2.64E+02
     2 OT DIIS     0.15E+00    0.7     0.00610845      -264.1373500604 -8.61E-02
     3 OT DIIS     0.15E+00    0.7     0.00265474      -264.1575027175 -2.02E-02
     4 OT DIIS     0.15E+00    0.7     0.00050370      -264.1589949460 -1.49E-03
     5 OT DIIS     0.15E+00    0.7     0.00023506      -264.1590622307 -6.73E-05
     6 OT DIIS     0.15E+00    0.7     0.00007388      -264.1590812985 -1.91E-05
     7 OT DIIS     0.15E+00    0.7     0.00002534      -264.1590843042 -3.01E-06
     8 OT DIIS     0.15E+00    0.7     0.00000873      -264.1590846553 -3.51E-07
     9 OT DIIS     0.15E+00    0.7     0.00000456      -264.1590846851 -2.98E-08
    10 OT DIIS     0.15E+00    0.7     0.00000165      -264.1590846911 -6.01E-09
    11 OT DIIS     0.15E+00    0.7     0.00000063      -264.1590846920 -9.84E-10
    12 OT DIIS     0.15E+00    0.7     0.00000023      -264.1590846922 -1.22E-10
    13 OT DIIS     0.15E+00    0.7     0.00000013      -264.1590846922 -1.59E-11
    14 OT DIIS     0.15E+00    0.7     0.00000005      -264.1590846922  4.83E-12
    15 OT DIIS     0.15E+00    0.7     0.00000002      -264.1590846922  1.09E-11
    16 OT DIIS     0.15E+00    0.7     8.9199E-09      -264.1590846922 -4.55E-13

  *** SCF run converged in    16 steps ***


  Electronic density on regular grids:        -30.6445992202       11.3554007798
  Core density on regular grids:               42.0000000000       -0.0000000000
  Hard and soft densities (Lebedev):          -96.5994855722      -85.2440847964
  Total Rho_soft + Rho1_hard - Rho1_soft      -41.9999999960
  Total charge density (r-space):               0.0000000040
  Total Rho_soft + Rho0_soft (g-space):        -0.0000000216

  Overlap energy of the core charge distribution:               0.00001507368616
  Self energy of the core charge distribution:               -217.69203579805162
  Core Hamiltonian energy:                                    -41.92947992474893
  Hartree energy:                                             109.81884153642088
  Exchange-correlation energy:                                -11.18898251446808
  Hartree-Fock Exchange energy:                                -7.04907567804541
  Dispersion energy:                                           -0.00373175431456

  GAPW| Exc from hard and soft atomic rho1:                   -18.55113864549490
  GAPW| local Eh = 1 center integrals:                        -77.56349698715481

  Total energy:                                              -264.15908469217135

  outer SCF iter =    1 RMS gradient =   0.89E-08 energy =       -264.1590846922
  outer SCF loop converged in   1 iterations or   16 steps


 !-----------------------------------------------------------------------------!
                     Mulliken Population Analysis

 #  Atom  Element  Kind  Atomic population                           Net charge
       1     n        1          7.227032                             -0.227032
       2     n        1          7.183441                             -0.183441
       3     c        2          6.010479                             -0.010479
       4     c        2          6.049209                             -0.049209
       5     c        2          6.013319                             -0.013319
       6     c        2          6.042218                             -0.042218
       7     h        3          0.862008                              0.137992
       8     h        3          0.865007                              0.134993
       9     h        3          0.876288                              0.123712
      10     h        3          0.870999                              0.129001
 # Total charge                             42.000000                  0.000000

 !-----------------------------------------------------------------------------!

 !-----------------------------------------------------------------------------!
                           Hirshfeld Charges

  #Atom  Element  Kind  Ref Charge     Population                    Net charge
      1       n      1       7.000          7.322                        -0.322
      2       n      1       7.000          7.321                        -0.321
      3       c      2       6.000          6.325                        -0.325
      4       c      2       6.000          6.338                        -0.338
      5       c      2       6.000          6.336                        -0.336
      6       c      2       6.000          6.317                        -0.317
      7       h      3       1.000          0.496                         0.504
      8       h      3       1.000          0.510                         0.490
      9       h      3       1.000          0.515                         0.485
     10       h      3       1.000          0.507                         0.493

  Total Charge                                                            0.012
 !-----------------------------------------------------------------------------!

 *******************************************************************************
 **                                                                           **
 **         ######## #######   #######   ######## #######  ########           **
 **            ##    ##     ## ##     ## ##       ##   ##     ##              **
 **            ##    ##     ## ##     ## ######   #######     ##              **
 **            ##    ##     ## ##     ## ##       ##          ##              **
 **            ##    #######   #######   ##       ##          ##              **
 **                                                                           **
 *******************************************************************************
 KERNEL|                                                                    FULL
 FUNCTIONAL| BECKE88:
 FUNCTIONAL| A. Becke, Phys. Rev. A 38, 3098 (1988) {LDA version}               
 FUNCTIONAL| LYP:
 FUNCTIONAL| C. Lee, W. Yang, R.G. Parr, Phys. Rev. B, 37, 785 (1988) {LDA versi
 FUNCTIONAL| on}                                                                
 FUNCTIONAL| VWN:
 FUNCTIONAL| S. H. Vosko, L. Wilk and M. Nusair, Can. J. Phys. 58, 1200 (1980) {
 FUNCTIONAL| LDA version}                                                       
 FUNCTIONAL| XALPHA:
 FUNCTIONAL| Dirac/Slater local exchange; parameter=  0.666 {LDA}               
 KERNEL|                                                          Exact Exchange
 KERNEL| Spin symmetry of excitations                                    Singlet
 TDDFPT| Number of states calculated                                           9
 TDDFPT| Number of Davidson iterations                                       100
 TDDFPT| Davidson iteration convergence                                0.367E-09
 TDDFPT| Max. number of Krylov space vectors                                5000
 TDDFPT| Molecular Orbitals:        Spin       AOs       Occ      Virt     Total
 TDDFPT|                               1       210        21       189       210
 
 -------------------------------------------------------------------------------
 -                            TDDFPT Initial Guess                             -
 -------------------------------------------------------------------------------
          State         Occupied      ->      Virtual          Excitation
          number         orbital              orbital          energy (eV)
 -------------------------------------------------------------------------------
             1               21                   22              4.13372
             2               21                   23              4.61839
             3               20                   22              5.36743
             4               20                   23              5.85210
             5               19                   22              6.06426
             6               19                   23              6.54892
             7               18                   22              7.07194
             8               21                   24              7.27248
             9               21                   25              7.52294

      Number of active states:                                       3969
 -------------------------------------------------------------------------------
 
 -------------------------------------------------------------------------------
 -                      TDDFPT WAVEFUNCTION OPTIMIZATION                       -
 -------------------------------------------------------------------------------

          Step            Time         Convergence           Conv. states
 -------------------------------------------------------------------------------

    State    Exc. energy (eV)      Convergence (eV)
        1       2.8667577            -1.2670E+00
        2       3.3206943            -1.2977E+00
        3       4.1234225            -1.2440E+00
        4       4.5397266            -1.3124E+00
        5       6.0733359             9.0802E-03
        6       6.5569641             8.0429E-03
        7       6.6627370            -4.0921E-01
        8       7.8220782             5.4960E-01
        9       9.5094237             1.9865E+00

             1             7.2          7.3002E-02                      0

    State    Exc. energy (eV)      Convergence (eV)
        1       2.8136183            -5.3139E-02
        2       3.2634183            -5.7276E-02
        3       4.0327218            -9.0701E-02
        4       4.4573812            -8.2345E-02
        5       5.5469029            -5.2643E-01
        6       6.4216186            -1.3535E-01
        7       6.5429043            -1.1983E-01
        8       6.9901347            -8.3194E-01
        9       7.4419283            -2.0675E+00

             2             7.2          7.5979E-02                      0

    State    Exc. energy (eV)      Convergence (eV)
        1       2.8100108            -3.6074E-03
        2       3.2614391            -1.9792E-03
        3       4.0260487            -6.6731E-03
        4       4.4513054            -6.0759E-03
        5       5.5008774            -4.6025E-02
        6       6.2950832            -1.2654E-01
        7       6.4514374            -9.1467E-02
        8       6.5770192            -4.1312E-01
        9       7.0594889            -3.8244E-01

             3             7.2          1.5182E-02                      0

    State    Exc. energy (eV)      Convergence (eV)
        1       2.8099226            -8.8266E-05
        2       3.2613744            -6.4624E-05
        3       4.0259472            -1.0155E-04
        4       4.4511495            -1.5591E-04
        5       5.5000402            -8.3719E-04
        6       6.2824976            -1.2586E-02
        7       6.4490396            -2.3978E-03
        8       6.5725661            -4.4531E-03
        9       6.9880994            -7.1390E-02

             4             7.1          2.6235E-03                      0

    State    Exc. energy (eV)      Convergence (eV)
        1       2.8099217            -8.8890E-07
        2       3.2613727            -1.7108E-06
        3       4.0259459            -1.2846E-06
        4       4.4511468            -2.6362E-06
        5       5.5000241            -1.6177E-05
        6       6.2820363            -4.6134E-04
        7       6.4489429            -9.6747E-05
        8       6.5723477            -2.1839E-04
        9       6.9716706            -1.6429E-02

             5             7.1          6.0375E-04                      0

    State    Exc. energy (eV)      Convergence (eV)
        1       2.8099217            -5.4563E-09
        2       3.2613727            -1.7114E-08
        3       4.0259459            -2.3030E-08
        4       4.4511468            -3.6766E-08
        5       5.5000237            -3.3240E-07
        6       6.2820119            -2.4423E-05
        7       6.4489396            -3.3198E-06
        8       6.5723390            -8.6768E-06
        9       6.9691849            -2.4857E-03

             6             7.1          9.1347E-05                      1

    State    Exc. energy (eV)      Convergence (eV)
        1       2.8099217            -4.1747E-11
        2       3.2613727            -1.0733E-10
        3       4.0259459            -2.2835E-10
        4       4.4511468            -4.2706E-10
        5       5.5000237            -6.0495E-09
        6       6.2820106            -1.2903E-06
        7       6.4489394            -1.3291E-07
        8       6.5723384            -6.2575E-07
        9       6.9687726            -4.1225E-04

             7             7.1          1.5150E-05                      5

    State    Exc. energy (eV)      Convergence (eV)
        1       2.8099217            -3.1457E-13
        2       3.2613727            -6.1668E-13
        3       4.0259459            -1.4599E-12
        4       4.4511468            -5.1494E-12
        5       5.5000237            -8.8974E-11
        6       6.2820106            -2.1284E-08
        7       6.4489394            -3.4683E-09
        8       6.5723384            -1.6601E-08
        9       6.9687538            -1.8876E-05

             8             7.1          6.9368E-07                      6

    State    Exc. energy (eV)      Convergence (eV)
        1       2.8099217            -6.4198E-15
        2       3.2613727            -6.0421E-15
        3       4.0259459            -4.5316E-15
        4       4.4511468            -4.3050E-14
        5       5.5000237            -1.1412E-12
        6       6.2820106            -2.7453E-10
        7       6.4489394            -8.3438E-11
        8       6.5723384            -3.1746E-10
        9       6.9687533            -4.4974E-07

             9             7.1          1.6528E-08                      8

    State    Exc. energy (eV)      Convergence (eV)
        1       2.8099217             1.8882E-15
        2       3.2613727             0.0000E+00
        3       4.0259459            -4.5316E-15
        4       4.4511468            -6.0421E-15
        5       5.5000237            -1.0574E-14
        6       6.2820106            -2.7469E-12
        7       6.4489394            -1.1442E-12
        8       6.5723384            -5.2574E-12
        9       6.9687533            -8.3671E-09

            10             7.1          3.0749E-10                      9
 ------------------------- Restart Davidson iterations -------------------------

    State    Exc. energy (eV)      Convergence (eV)
        1       2.8099217            -2.2658E-15
        2       3.2613727            -3.7763E-15
        3       4.0259459             9.0632E-15
        4       4.4511468             1.5105E-15
        5       5.5000237             7.5527E-16
        6       6.2820106             1.3595E-14
        7       6.4489394            -1.0574E-14
        8       6.5723384             3.3987E-14
        9       6.9687533             5.5890E-14

            11             7.1          2.0539E-15                      9
 
 -------------------------------------------------------------------------------
 -  TDDFPT run converged in 11 iteration(s) 
 -------------------------------------------------------------------------------

 R-TDDFPT states of multiplicity 1
 Transition dipoles calculated using length formulation

         State    Excitation        Transition dipole (a.u.)        Oscillator
         number   energy (eV)       x           y           z     strength (a.u.)
         ------------------------------------------------------------------------
 TDDFPT|      1       2.80992  -1.2959E-01  1.1561E-01  1.2037E-01   3.07380E-03
 TDDFPT|      2       3.26137  -1.5037E-01 -1.3023E-01  3.6051E-02   3.26552E-03
 TDDFPT|      3       4.02595   7.4904E-03 -1.4668E-01 -4.1857E-02   2.30041E-03
 TDDFPT|      4       4.45115   2.5992E-02  7.6982E-02 -5.0142E-02   9.94123E-04
 TDDFPT|      5       5.50002   2.2027E-02  9.4559E-02 -5.3918E-01   4.04437E-02
 TDDFPT|      6       6.28201   6.4687E-02 -5.2864E-01 -5.0269E-01   8.25470E-02
 TDDFPT|      7       6.44894  -3.5745E-02  5.3021E-01  2.1078E-01   5.16378E-02
 TDDFPT|      8       6.57234   3.7278E-02 -5.3584E-02  6.1667E-01   6.19189E-02
 TDDFPT|      9       6.96875  -3.4091E-02 -8.4741E-02 -7.1011E-02   2.28536E-03

 TDDFPT : CheckSum  =  0.589841E+00
 
 -------------------------------------------------------------------------------
 -                            Excitation analysis                              -
 -------------------------------------------------------------------------------
        State             Occupied              Virtual             Excitation
        number             orbital              orbital             amplitude
 -------------------------------------------------------------------------------
             1   2.80992 eV
                                21                   22               0.990883
                                19                   22              -0.113094
             2   3.26137 eV
                                21                   23               0.988349
                                19                   23              -0.091708
                                20                   22              -0.070401
             3   4.02595 eV
                                20                   22               0.977361
                                20                   23               0.100617
                                19                   22               0.095588
                                18                   22               0.089011
                                18                   23               0.064824
                                21                   23               0.053669
             4   4.45115 eV
                                20                   23               0.980616
                                19                   23               0.114083
                                20                   22              -0.104819
                                18                   23               0.050132
             5   5.50002 eV
                                19                   23              -0.559249
                                19                   22              -0.536190
                                18                   22              -0.518354
                                18                   23               0.330749
                                21                   25               0.071759
                                20                   23               0.065894
             6   6.28201 eV
                                19                   22              -0.617094
                                19                   23               0.494472
                                21                   24              -0.380039
                                18                   22               0.241752
                                21                   25               0.202414
                                21                   26              -0.174381
                                18                   23               0.146056
                                21                   27              -0.126397
                                21                   28               0.087554
                                20                   23              -0.072425
                                21                   22              -0.070940
                                21                   34               0.050446
             7   6.44894 eV
                                21                   24              -0.898810
                                19                   22               0.266102
                                18                   22              -0.227153
                                19                   23              -0.126190
                                21                   25              -0.105957
                                18                   23              -0.099030
                                20                   24               0.084470
             8   6.57234 eV
                                21                   25               0.925883
                                19                   23              -0.216023
                                18                   23              -0.166381
                                19                   22               0.165719
                                21                   26              -0.099371
                                21                   27              -0.081095
                                18                   22               0.079826
             9   6.96875 eV
                                21                   26              -0.727153
                                21                   27              -0.431418
                                18                   22              -0.328397
                                18                   23              -0.271306
                                20                   24              -0.151548
                                21                   28               0.138438
                                21                   25              -0.132181
                                21                   24               0.105519
                                19                   22               0.074242
                                19                   23               0.067632
 -------------------------------------------------------------------------------
 
 -------------------------------------------------------------------------------
 -                            Natural Orbital analysis                         -
 -------------------------------------------------------------------------------
   STATE NR.      1             2.80992 eV
     Particle-Hole state: 1   Spin:1     Eigenvalue: 0.99694   Sum Eigv: 0.99694
   STATE NR.      2             3.26137 eV
     Particle-Hole state: 1   Spin:1     Eigenvalue: 0.98941   Sum Eigv: 0.98941
   STATE NR.      3             4.02595 eV
     Particle-Hole state: 1   Spin:1     Eigenvalue: 0.98466   Sum Eigv: 0.98466
   STATE NR.      4             4.45115 eV
     Particle-Hole state: 1   Spin:1     Eigenvalue: 0.99118   Sum Eigv: 0.99118
   STATE NR.      5             5.50002 eV
     Particle-Hole state: 1   Spin:1     Eigenvalue: 0.64224   Sum Eigv: 0.64224
     Particle-Hole state: 2   Spin:1     Eigenvalue: 0.34647   Sum Eigv: 0.98871
   STATE NR.      6             6.28201 eV
     Particle-Hole state: 1   Spin:1     Eigenvalue: 0.65912   Sum Eigv: 0.65912
     Particle-Hole state: 2   Spin:1     Eigenvalue: 0.24720   Sum Eigv: 0.90632
     Particle-Hole state: 3   Spin:1     Eigenvalue: 0.07235   Sum Eigv: 0.97867
   STATE NR.      7             6.44894 eV
     Particle-Hole state: 1   Spin:1     Eigenvalue: 0.83660   Sum Eigv: 0.83660
     Particle-Hole state: 2   Spin:1     Eigenvalue: 0.12593   Sum Eigv: 0.96253
     Particle-Hole state: 3   Spin:1     Eigenvalue: 0.02801   Sum Eigv: 0.99055
   STATE NR.      8             6.57234 eV
     Particle-Hole state: 1   Spin:1     Eigenvalue: 0.88210   Sum Eigv: 0.88210
     Particle-Hole state: 2   Spin:1     Eigenvalue: 0.10885   Sum Eigv: 0.99095
   STATE NR.      9             6.96875 eV
     Particle-Hole state: 1   Spin:1     Eigenvalue: 0.76968   Sum Eigv: 0.76968
     Particle-Hole state: 2   Spin:1     Eigenvalue: 0.19567   Sum Eigv: 0.96535
     Particle-Hole state: 3   Spin:1     Eigenvalue: 0.02624   Sum Eigv: 0.99159
 -------------------------------------------------------------------------------
 Ground state orbital alignment:         1.000000[MinVal]      1.000000[Average]
 Excitation vector alignment:                                           1.000000
 Calculate properties for state:   1      with excitation energy      2.80992 eV

  HFX_MEM_INFO| Number of cart. primitive DERIV's calculated:        10886119248
  HFX_MEM_INFO| Number of sph. DERIV's calculated:                    2800178928
  HFX_MEM_INFO| Number of sph. DERIV's stored in-core:                         0
  HFX_MEM_INFO| Number of sph. DERIV's calculated on the fly:         2800178928
  HFX_MEM_INFO| Total memory consumption DERIV's RAM [MiB]:                    0
  HFX_MEM_INFO| Whereof max-vals [MiB]:                                        1
  HFX_MEM_INFO| Total compression factor DERIV's RAM:                       0.00

 !--------------------------- Excited State Energy ----------------------------!
[...]
 # max 3D layers                                1
 # MPI messages exchanged                  141312
 MPI messages size (bytes):
  total size                         1.085410E+09
  min size                           0.000000E+00
  max size                          31.744000E+03
  average size                       7.680949E+03
 MPI breakdown and total messages size (bytes):
             size <=      128               78756                        0
       128 < size <=     8192               11436                 78488928
      8192 < size <=    32768               51120               1006921440
     32768 < size <=   131072                   0                        0
    131072 < size <=  4194304                   0                        0
   4194304 < size <= 16777216                   0                        0
  16777216 < size                               0                        0
 -------------------------------------------------------------------------------
 -                                                                             -
 -                      DBCSR MESSAGE PASSING PERFORMANCE                      -
 -                                                                             -
 -------------------------------------------------------------------------------
 ROUTINE             CALLS      AVE VOLUME [Bytes]
 MP_Bcast               28                     12.
 MP_Allreduce         6298                      8.
 MP_Alltoall         24815                   2773.
 MP_ISend            23548                   3607.
 MP_IRecv            23548                   3322.
 -------------------------------------------------------------------------------

 -------------------------------------------------------------------------------
 -                                                                             -
 -                                DBM STATISTICS                               -
 -                                                                             -
 -------------------------------------------------------------------------------
    M  x    N  x    K                                          COUNT     PERCENT
 -------------------------------------------------------------------------------

 -------------------------------------------------------------------------------
 -                                                                             -
 -                                GRID STATISTICS                              -
 -                                                                             -
 -------------------------------------------------------------------------------
 LP    KERNEL             BACKEND                              COUNT     PERCENT
 1     collocate ortho    CPU                                 243360      15.71%
 2     collocate ortho    CPU                                 197600      12.76%
 1     integrate ortho    CPU                                 193728      12.51%
 0     collocate ortho    CPU                                 169728      10.96%
 2     integrate ortho    CPU                                 161360      10.42%
 3     collocate ortho    CPU                                 133536       8.62%
 0     integrate ortho    CPU                                 130560       8.43%
 3     integrate ortho    CPU                                 110320       7.12%
 4     collocate ortho    CPU                                  57408       3.71%
 4     integrate ortho    CPU                                  49296       3.18%
 4     collocate general  CPU                                  20160       1.30%
 5     collocate ortho    CPU                                  17472       1.13%
 5     integrate ortho    CPU                                  15648       1.01%
 4     integrate general  CPU                                  15360       0.99%
 2     collocate general  CPU                                  13440       0.87%
 2     integrate general  CPU                                  10240       0.66%
 6     collocate ortho    CPU                                   4368       0.28%
 6     integrate ortho    CPU                                   4032       0.26%
 5     integrate general  CPU                                    384       0.02%
 3     integrate general  CPU                                    256       0.02%
 7     integrate ortho    CPU                                    168       0.01%
 0     collocate general  CPU                                    160       0.01%
 0     integrate general  CPU                                    160       0.01%
 -------------------------------------------------------------------------------

 MEMORY| Estimated peak process memory [MiB]                                1282

 -------------------------------------------------------------------------------
 ----                             MULTIGRID INFO                            ----
 -------------------------------------------------------------------------------
 count for grid        1:         109546          cutoff [a.u.]          200.00
 count for grid        2:          22505          cutoff [a.u.]           66.67
 count for grid        3:           8627          cutoff [a.u.]           22.22
 count for grid        4:           1858          cutoff [a.u.]            7.41
 total gridlevel count  :         142536

 -------------------------------------------------------------------------------
 -                                                                             -
 -                         MESSAGE PASSING PERFORMANCE                         -
 -                                                                             -
 -------------------------------------------------------------------------------

 ROUTINE             CALLS      AVE VOLUME [Bytes]
 MP_Group                5
 MP_Bcast             4730                 992631.
 MP_Allreduce        14241                 146054.
 MP_Sync              1386
 MP_Alltoall          4140               15041093.
 MP_SendRecv          9420                 233936.
 MP_ISendRecv        15615                 125716.
 MP_Wait             33083
 MP_comm_split          48
 MP_ISend            15047                 822511.
 MP_IRecv            15214                 813116.
 -------------------------------------------------------------------------------


 -------------------------------------------------------------------------------
 -                                                                             -
 -                           R E F E R E N C E S                               -
 -                                                                             -
 -------------------------------------------------------------------------------
 
 CP2K version 2024.1 (Development Version), the CP2K developers group (2024).
 CP2K is freely available from https://www.cp2k.org/ .

 Kuehne,Thomas D.; Iannuzzi,Marcella; Del Ben,Mauro;
 Rybkin,Vladimir V.; Seewald,Patrick; Stein,Frederick; Laino,Teodoro;
 Khaliullin,Rustam Z.; Schuett,Ole; Schiffmann,Florian; Golze,Dorothea;
 Wilhelm,Jan; Chulkov,Sergey; Bani-Hashemian,Mohammad Hossein;
 Weber,Valery; Borstnik,Urban; Taillefumier,Mathieu;
 Jakobovits,Alice Shoshana; Lazzaro,Alfio; Pabst,Hans; Mueller,Tiziano;
 Schade,Robert; Guidon,Manuel; Andermatt,Samuel; Holmberg,Nico;
 Schenter,Gregory K.; Hehn,Anna; Bussy,Augustin; Belleflamme,Fabian;
 Tabacchi,Gloria; Gloess,Andreas; Lass,Michael; Bethune,Iain;
 Mundy,Christopher J.; Plessl,Christian; Watkins,Matt;
 VandeVondele,Joost; Krack,Matthias; Hutter,Juerg. 
 The Journal of Chemical Physics, 152 (19), (2020). 
 CP2K: An electronic structure and molecular dynamics software package -
 Quickstep: Efficient and accurate electronic structure calculations.
 https://doi.org/10.1063/5.0007045

 Goerigk, Lars; Hansen, Andreas; Bauer, Christoph; Ehrlich, Stephan;
 Najibi, Asim; Grimme, Stefan. , 19 (48), (2017). 
 A look at the density functional theory zoo with the advanced GMTKN55 database
 for general main group thermochemistry, kinetics and noncovalent interactions.
 https://doi.org/10.1039/C7CP04913G

 Schuett, Ole; Messmer, Peter; Hutter, Juerg; VandeVondele, Joost. 
 Electronic Structure Calculations on Graphics Processing Units, John
 Wiley & Sons, Ltd, 173-190 (2016). 
 GPU-Accelerated Sparse Matrix-Matrix Multiplication for
 Linear Scaling Density Functional Theory.
 https://doi.org/10.1002/9781118670712.ch8

 Heinecke, A; Henry, G; Hutchinson, M; Pabst, H. 
 Proceedings of Intl. Supercomputing Conference, 981-991 (2016). 
 LIBXSMM: Accelerating Small Matrix Multiplications
 by Runtime Code Generation.
 https://doi.org/10.1109/SC.2016.83

 Borstnik, U; VandeVondele, J; Weber, V; Hutter, J. 
 PARALLEL COMPUTING, 40 (5-6), 47-58 (2014). 
 Sparse matrix multiplication: The distributed block-compressed sparse
 row library.
 https://doi.org/10.1016/j.parco.2014.03.012

 Hutter, J; Iannuzzi, M; Schiffmann, F; VandeVondele, J. 
 WIREs Comput Mol Sci., 4 (1), 15-25 (2014). 
 CP2K: atomistic simulations of condensed matter systems.
 https://doi.org/10.1002/wcms.1159

 Grimme, S; Ehrlich, S; Goerigk, L. 
 JOURNAL OF COMPUTATIONAL CHEMISTRY, 32, 1456 (2011). 
 Effect of the damping function in dispersion corrected density functional theory.
 https://doi.org/10.1002/jcc.21759

 Grimme, S; Antony, J; Ehrlich, S; Krieg, H. 
 JOURNAL OF CHEMICAL PHYSICS, 132 (15), 154104 (2010). 
 A consistent and accurate ab initio parametrization of density
 functional dispersion correction (DFT-D) for the 94 elements H-Pu.
 https://doi.org/10.1063/1.3382344

 Guidon, M; Hutter, J; VandeVondele, J. 
 JOURNAL OF CHEMICAL THEORY AND COMPUTATION, 5 (11), 3010-3021 (2009). 
 Robust Periodic Hartree-Fock Exchange for Large-Scale Simulations Using
 Gaussian Basis Sets.
 https://doi.org/10.1021/ct900494g

 Guidon, M; Schiffmann, F; Hutter, J; VandeVondele, J. 
 JOURNAL OF CHEMICAL PHYSICS, 128 (21), 214104 (2008). 
 Ab initio molecular dynamics using hybrid density functionals.
 https://doi.org/10.1063/1.2931945

 VandeVondele, J; Hutter, J. 
 JOURNAL OF CHEMICAL PHYSICS, 127 (11), 114105 (2007). 
 Gaussian basis sets for accurate calculations on molecular systems in
 gas and condensed phases.
 https://doi.org/10.1063/1.2770708

 Frigo, M; Johnson, SG. 
 PROCEEDINGS OF THE IEEE, 93 (2), 216-231 (2005). 
 The design and implementation of FFTW3.
 https://doi.org/10.1109/JPROC.2004.840301

 Iannuzzi, M; Chassaing, T; Wallman, T; Hutter, J. 
 CHIMIA, 59 (7-8), 499-503 (2005). 
 Ground and excited state density functional calculations with the
 Gaussian and augmented-plane-wave method.
 https://doi.org/10.2533/000942905777676164

 VandeVondele, J; Hutter, J. 
 JOURNAL OF CHEMICAL PHYSICS, 118 (10), 4365-4369 (2003). 
 An efficient orbital transformation method for electronic structure
 calculations.
 https://doi.org/10.1063/1.1543154

 Martin,Richard L.. 
 The Journal of Chemical Physics, 118 (11), 4775-4777 (2003). 
 Natural transition orbitals.
 https://doi.org/10.1063/1.1558471

 Lippert, G; Hutter, J; Parrinello, M. 
 THEORETICAL CHEMISTRY ACCOUNTS, 103 (2), 124-140 (1999). 
 The Gaussian and augmented-plane-wave density functional method for ab
 initio molecular dynamics simulations.
 https://doi.org/10.1007/s002140050523

 Krack, M; Parrinello, M. 
 PHYSICAL CHEMISTRY CHEMICAL PHYSICS, 2 (10), 2105-2112 (2000). 
 All-electron ab-initio molecular dynamics.
 https://doi.org/10.1039/b001167n

 Martyna, GJ; Tuckerman, ME. 
 JOURNAL OF CHEMICAL PHYSICS, 110 (6), 2810-2821 (1999). 
 A reciprocal space based method for treating long range interactions in
 ab initio and force-field-based calculations in clusters.
 https://doi.org/10.1063/1.477923

 BECKE, AD. PHYSICAL REVIEW A, 38 (6), 3098-3100 (1988). 
 DENSITY-FUNCTIONAL EXCHANGE-ENERGY APPROXIMATION WITH CORRECT
 ASYMPTOTIC-BEHAVIOR.
 https://doi.org/10.1103/PhysRevA.38.3098

 LEE, CT; YANG, WT; PARR, RG. 
 PHYSICAL REVIEW B, 37 (2), 785-789 (1988). 
 DEVELOPMENT OF THE COLLE-SALVETTI CORRELATION-ENERGY FORMULA INTO A
 FUNCTIONAL OF THE ELECTRON-DENSITY.
 https://doi.org/10.1103/PhysRevB.37.785

 VOSKO, SH; WILK, L; NUSAIR, M. 
 CANADIAN JOURNAL OF PHYSICS, 58 (8), 1200-1211 (1980). 
 ACCURATE SPIN-DEPENDENT ELECTRON LIQUID CORRELATION ENERGIES FOR LOCAL
 SPIN-DENSITY CALCULATIONS - A CRITICAL ANALYSIS.
 https://doi.org/10.1139/p80-159


 -------------------------------------------------------------------------------
 -                                                                             -
 -                                T I M I N G                                  -
 -                                                                             -
 -------------------------------------------------------------------------------
 SUBROUTINE                       CALLS  ASD         SELF TIME        TOTAL TIME
                                MAXIMUM       AVERAGE  MAXIMUM  AVERAGE  MAXIMUM
 CP2K                                 1  1.0    0.009    0.023  184.289  184.290
 qs_forces                            1  2.0    0.000    0.001  183.729  183.729
 qs_energies                          1  3.0    0.000    0.000  117.716  117.716
 qs_energies_properties               1  4.0    0.000    0.000  103.278  103.279
 tddfpt                               1  5.0    0.000    0.000  103.278  103.278
 tddfpt_energies                      1  6.0    0.000    0.000   78.773   78.773
 tddfpt_davidson_solver               2  7.0    0.001    0.002   78.279   78.280
 tddfpt_compute_Aop_evects           11  8.0    0.000    0.000   78.065   78.066
 excited_state_energy                 2  3.5    0.001    0.001   57.110   57.110
 fft_wrap_pw1pw2                   3744 12.1    0.024    0.026   52.132   54.653
 fft_wrap_pw1pw2_200               2615 13.4    1.901    1.950   50.680   53.335
 fhxc_kernel                         11  9.0    0.003    0.003   49.725   49.725
 response_equation                    1  4.0    0.000    0.000   42.567   42.567
 linres_solver                        1  5.0    0.001    0.003   42.545   42.545
 apply_op                            44  6.0    0.001    0.001   42.497   42.497
 fft3d_ps                          3744 14.1   24.044   26.931   39.158   41.407
 integrate_four_center              262 10.6    0.041    0.043   40.261   40.268
 integrate_four_center_main         262 11.6    0.016    0.019   36.403   37.962
 integrate_four_center_bin        24890 12.6   36.386   37.948   36.386   37.948
 derivatives_four_center              4  8.5    0.003    0.004   33.998   34.811
 derivatives_four_center_main         4  9.5    0.000    0.000   33.941   34.754
 derivatives_four_center_bin        416 10.5   32.060   33.451   32.060   33.451
 xc_pw_derive                      1362 12.4    0.009    0.009   29.436   30.681
 tddfpt_apply_hfx                    11  9.0    0.001    0.001   28.276   28.276
 tddft_hfx_matrix                   198 10.0    0.004    0.004   27.991   27.991
 apply_op_2_dft                      43  7.0    0.002    0.002   25.272   25.379
 tddfpt_forces_main                   1  6.0    0.000    0.000   24.452   24.452
 tddfpt_forces                        1  7.0    0.000    0.000   23.552   23.552
 tddfpt_force_direct                  1  8.0    0.000    0.000   23.141   23.141
 tddfpt_kernel_force                  1  9.0    0.000    0.000   23.134   23.134
 fhxc_force                           1 10.0    0.001    0.001   23.134   23.134
 rebuild_ks_matrix                   17  6.8    0.000    0.000   21.764   21.764
 qs_ks_build_kohn_sham_matrix        17  7.8    0.002    0.002   21.764   21.764
 prepare_gapw_den                   214  8.8    0.004    0.004   21.563   21.637
 xc_pw_divergence                   204 12.3    0.004    0.004   17.551   19.108
 tddfpt_apply_xc_analytic            99 10.0    0.657    0.717   16.666   16.797
 calculate_rho_elec                 208  9.5    0.158    0.166   15.580   15.584
 qs_rho_update_rho_low              203  8.6    0.002    0.002   15.555   15.556
 response_force                       1  4.0    0.004    0.005   14.542   14.542
 qs_fxc_analytic                     44  8.0    0.001    0.002   14.373   14.442
 scf_env_do_scf                       1  4.0    0.000    0.000   14.296   14.296
 hfx_ks_matrix                       17  8.8    0.000    0.000   13.913   13.913
 xc_calc_2nd_deriv_analytical       752 11.1    1.153    1.291   13.494   13.879
 xc_rho_set_and_dset_create         106 12.1    1.052    1.178   11.311   13.263
 qs_ks_update_qs_env                 18  6.0    0.000    0.000   12.899   12.899
 density_rs2pw                      208 10.5    0.006    0.006   12.332   12.823
 mp_alltoall_z22v                  3744 16.1    9.187   12.173    9.187   12.173
 integrate_v_rspace                 168  9.3    0.003    0.003   11.230   11.762
 qs_vxc_create                       60 11.8    0.001    0.001   11.625   11.630
 xc_vxc_pw_create                    60 12.8    0.101    0.110   11.625   11.629
 yz_to_x                           1913 15.3    2.694    3.153    8.338   11.354
 calculate_rho0_atom                630  9.8   10.819   11.339   10.819   11.339
 scf_env_do_scf_inner_loop           16  5.0    0.000    0.001   10.409   10.410
 xc_calc_2nd_deriv                   45  8.9    0.284    0.328    9.179   10.330
 tddfpt_apply_coulomb                99 10.0    0.001    0.001    8.289    9.214
 qs_ks_update_qs_env_forces           1  3.0    0.000    0.000    8.866    8.866
 potential_pw2rs                    168 10.3    0.010    0.010    7.808    8.341
 qs_fgxc_gdiff                        1 11.0    0.000    0.000    8.288    8.289
 qs_fxc_fdiff                         7 12.0    0.000    0.000    8.268    8.269
 x_to_yz                           1831 15.0    3.188    3.659    6.732    8.105
 put_rho0_on_grid                   210  9.8    0.185    0.213    6.775    6.859
 xc_prep_2nd_deriv                   46  8.9    0.000    0.000    5.626    6.572
 transfer_rs2pw                    1043 11.4    0.007    0.008    5.794    6.286
 pw_gather_p                       1913 14.3    5.761    6.228    5.761    6.228
 apply_hfx                           43  7.0    0.000    0.001    6.021    6.027
 hfx_matrix                          43  8.0    0.001    0.001    6.018    6.024
 transfer_pw2rs                     837 11.3    0.004    0.005    5.477    5.530
 transfer_rs2pw_200                 419 12.1    2.376    2.443    4.719    5.222
 integrate_vhg0_rspace              164  9.9    0.958    1.047    5.091    5.099
 pw_poisson_solve                   165  9.9    0.002    0.002    3.771    4.796
 mp_sum_d                          2165  9.0    2.926    4.605    2.926    4.605
 transfer_pw2rs_200                 333 12.1    2.129    2.149    4.262    4.377
 xc_functional_eval                3160 11.9    0.003    0.005    2.392    4.298
 mp_waitany                       15040 13.1    3.478    3.996    3.478    3.996
 init_scf_loop                        1  5.0    0.000    0.000    3.886    3.886
 grid_collocate_task_list           208 10.5    2.707    3.688    2.707    3.688
 -------------------------------------------------------------------------------

 The number of warnings for this run is : 0
 
 -------------------------------------------------------------------------------
  **** **** ******  **  PROGRAM ENDED AT                 2025-01-06 02:45:51.863
 ***** ** ***  *** **   PROGRAM RAN ON                               nesh-srp172
 **    ****   ******    PROGRAM RAN BY                                  suphc356
 ***** **    ** ** **   PROGRAM PROCESS ID                               2640988
  **** **  *******  **  PROGRAM STOPPED IN /gxfs_work/cau/suphc356/NEWTONX_proje
                                           ct/Pyrazin_molecule/CP2K_GAPW_B3LYP_d
                                           ef2_TZVP/MOLDYN_BA_again/TRAJECTORIES
                                           /TRAJ71/TEMP
