 DBCSR| CPU Multiplication driver                                           XSMM (U)
 DBCSR| Multrec recursion limit                                              512 (U)
 DBCSR| Multiplication stack size                                           1000 (D)
 DBCSR| Maximum elements for images                                    UNLIMITED (U)
 DBCSR| Multiplicative factor virtual images                                   1 (U)
 DBCSR| Use multiplication densification                                       T (D)
 DBCSR| Multiplication size stacks                                             3 (U)
 DBCSR| Use memory pool for CPU allocation                                     F (U)
 DBCSR| Number of 3D layers                                               SINGLE (U)
 DBCSR| Use MPI memory allocation                                              F (U)
 DBCSR| Use RMA algorithm                                                      F (U)
 DBCSR| Use Communication thread                                               T (U)
 DBCSR| Communication thread load                                             87 (D)
 DBCSR| MPI: My process id                                                     0
 DBCSR| MPI: Number of processes                                              16
 DBCSR| OMP: Current number of threads                                         1
 DBCSR| OMP: Max number of threads                                             1
 DBCSR| Split modifier for TAS multiplication algorithm                  1.0E+00 (U)


  **** **** ******  **  PROGRAM STARTED AT               2025-01-06 21:47:47.260
 ***** ** ***  *** **   PROGRAM STARTED ON                           nesh-srp148
 **    ****   ******    PROGRAM STARTED BY                              suphc356
 ***** **    ** ** **   PROGRAM PROCESS ID                               1693508
  **** **  *******  **  PROGRAM STARTED IN /gxfs_work/cau/suphc356/NEWTONX_proje
                                           ct/Pyrazin_molecule/CP2K_GAPW_B3LYP_d
                                           ef2_TZVP/MOLDYN_BA_again/TRAJECTORIES
                                           /TRAJ112/TEMP

 CP2K| version string:                 CP2K version 2024.1 (Development Version)
 CP2K| source code revision number:                                  git:990486a
 CP2K| cp2kflags: omp libint fftw3 libxc libgrpp parallel mpi_f08 scalapack cosm
 CP2K|            a xsmm spglib mkl
 CP2K| is freely available from                            https://www.cp2k.org/
 CP2K| Program compiled at                          Mon Mar 11 08:48:45 CET 2024
 CP2K| Program compiled on                                           nesh-login2
 CP2K| Program compiled for                                                local
 CP2K| Data directory path                 /gxfs_work/cau/suphc356/cp2k_gcc/data
 CP2K| Input file name                                                  cp2k.inp

 GLOBAL| Force Environment number                                              1
 GLOBAL| Basis set file name                                     EMSL_BASIS_SETS
 GLOBAL| Potential file name                                      ALL_POTENTIALS
 GLOBAL| MM Potential file name                                     MM_POTENTIAL
 GLOBAL| Coordinate file name                                      __STD_INPUT__
 GLOBAL| Method name                                                        CP2K
 GLOBAL| Project name                                               testsuite_ad
 GLOBAL| Run type                                                   ENERGY_FORCE
 GLOBAL| FFT library                                                       FFTW3
 GLOBAL| Diagonalization library                                       ScaLAPACK
 GLOBAL| DGEMM library                                                      BLAS
 GLOBAL| Orthonormality check for eigenvectors                          DISABLED
 GLOBAL| Matrix multiplication library                                     COSMA
 GLOBAL| All-to-all communication in single precision                          F
 GLOBAL| FFTs using library dependent lengths                                  F
 GLOBAL| Grid backend                                                       AUTO
 GLOBAL| Global print level                                               MEDIUM
 GLOBAL| MPI I/O enabled                                                       T
 GLOBAL| Total number of message passing processes                            16
 GLOBAL| Number of threads for this process                                    1
 GLOBAL| This output is from process                                           0
 GLOBAL| Stack size for threads created by OpenMP (OMP_STACKSIZE)           256M
 GLOBAL| CPU model name                              Intel(R) Xeon(R) Gold 6426Y
 GLOBAL| CPUID                                                              1003
 GLOBAL| Compiled for CPUID                                                    0

 *** HINT in environment.F:920 :: The compiler target flags (generic) used ***
 *** to build this binary cannot exploit all extensions of this CPU model  ***
 *** (x86_avx512). Consider compiler target flags as part of FCFLAGS and   ***
 *** CFLAGS (ARCH file).                                                   ***


 MEMORY| system memory details [Kb]
 MEMORY|                        rank 0           min           max       average
 MEMORY| MemTotal            263786136     263786136     263786136     263786136
 MEMORY| MemFree             241401572     241401572     241401572     241401572
 MEMORY| Buffers               1242976       1242976       1242976       1242976
 MEMORY| Cached                 681676        681676        681676        681676
 MEMORY| Slab                  5834808       5834808       5834808       5834808
 MEMORY| SReclaimable           263652        263652        263652        263652
 MEMORY| MemLikelyFree       243589876     243589876     243589876     243589876


 *** Fundamental physical constants (SI units) ***

 *** Literature: B. J. Mohr and B. N. Taylor,
 ***             CODATA recommended values of the fundamental physical
 ***             constants: 2006, Web Version 5.1
 ***             http://physics.nist.gov/constants

 Speed of light in vacuum [m/s]                             2.99792458000000E+08
 Magnetic constant or permeability of vacuum [N/A**2]       1.25663706143592E-06
 Electric constant or permittivity of vacuum [F/m]          8.85418781762039E-12
 Planck constant (h) [J*s]                                  6.62606896000000E-34
 Planck constant (h-bar) [J*s]                              1.05457162825177E-34
 Elementary charge [C]                                      1.60217648700000E-19
 Electron mass [kg]                                         9.10938215000000E-31
 Electron g factor [ ]                                     -2.00231930436220E+00
 Proton mass [kg]                                           1.67262163700000E-27
 Fine-structure constant                                    7.29735253760000E-03
 Rydberg constant [1/m]                                     1.09737315685270E+07
 Avogadro constant [1/mol]                                  6.02214179000000E+23
 Boltzmann constant [J/K]                                   1.38065040000000E-23
 Atomic mass unit [kg]                                      1.66053878200000E-27
 Bohr radius [m]                                            5.29177208590000E-11

 *** Conversion factors ***

 [u] -> [a.u.]                                              1.82288848426455E+03
 [Angstrom] -> [Bohr] = [a.u.]                              1.88972613288564E+00
 [a.u.] = [Bohr] -> [Angstrom]                              5.29177208590000E-01
 [a.u.] -> [s]                                              2.41888432650478E-17
 [a.u.] -> [fs]                                             2.41888432650478E-02
 [a.u.] -> [J]                                              4.35974393937059E-18
 [a.u.] -> [N]                                              8.23872205491840E-08
 [a.u.] -> [K]                                              3.15774647902944E+05
 [a.u.] -> [kJ/mol]                                         2.62549961709828E+03
 [a.u.] -> [kcal/mol]                                       6.27509468713739E+02
 [a.u.] -> [Pa]                                             2.94210107994716E+13
 [a.u.] -> [bar]                                            2.94210107994716E+08
 [a.u.] -> [atm]                                            2.90362800883016E+08
 [a.u.] -> [eV]                                             2.72113838565563E+01
 [a.u.] -> [Hz]                                             6.57968392072181E+15
 [a.u.] -> [1/cm] (wave numbers)                            2.19474631370540E+05
 [a.u./Bohr**2] -> [1/cm]                                   5.14048714338585E+03
 

 CELL_TOP| Volume [angstrom^3]:                                      2744.000000
 CELL_TOP| Vector a [angstrom    14.000     0.000     0.000   |a| =    14.000000
 CELL_TOP| Vector b [angstrom     0.000    14.000     0.000   |b| =    14.000000
 CELL_TOP| Vector c [angstrom     0.000     0.000    14.000   |c| =    14.000000
 CELL_TOP| Angle (b,c), alpha [degree]:                                90.000000
 CELL_TOP| Angle (a,c), beta  [degree]:                                90.000000
 CELL_TOP| Angle (a,b), gamma [degree]:                                90.000000
 CELL_TOP| Numerically orthorhombic:                                         YES
 CELL_TOP| Periodicity                                                      NONE

 CELL| Volume [angstrom^3]:                                          2744.000000
 CELL| Vector a [angstrom]:      14.000     0.000     0.000   |a| =    14.000000
 CELL| Vector b [angstrom]:       0.000    14.000     0.000   |b| =    14.000000
 CELL| Vector c [angstrom]:       0.000     0.000    14.000   |c| =    14.000000
 CELL| Angle (b,c), alpha [degree]:                                    90.000000
 CELL| Angle (a,c), beta  [degree]:                                    90.000000
 CELL| Angle (a,b), gamma [degree]:                                    90.000000
 CELL| Numerically orthorhombic:                                             YES
 CELL| Periodicity                                                          NONE

 CELL_REF| Volume [angstrom^3]:                                      2744.000000
 CELL_REF| Vector a [angstrom    14.000     0.000     0.000   |a| =    14.000000
 CELL_REF| Vector b [angstrom     0.000    14.000     0.000   |b| =    14.000000
 CELL_REF| Vector c [angstrom     0.000     0.000    14.000   |c| =    14.000000
 CELL_REF| Angle (b,c), alpha [degree]:                                90.000000
 CELL_REF| Angle (a,c), beta  [degree]:                                90.000000
 CELL_REF| Angle (a,b), gamma [degree]:                                90.000000
 CELL_REF| Numerically orthorhombic:                                         YES
 CELL_REF| Periodicity                                                      NONE

 *******************************************************************************
 *******************************************************************************
 **                                                                           **
 **     #####                         ##              ##                      **
 **    ##   ##            ##          ##              ##                      **
 **   ##     ##                       ##            ######                    **
 **   ##     ##  ##   ##  ##   #####  ##  ##   ####   ##    #####    #####    **
 **   ##     ##  ##   ##  ##  ##      ## ##   ##      ##   ##   ##  ##   ##   **
 **   ##  ## ##  ##   ##  ##  ##      ####     ###    ##   ######   ######    **
 **    ##  ###   ##   ##  ##  ##      ## ##      ##   ##   ##       ##        **
 **     #######   #####   ##   #####  ##  ##  ####    ##    #####   ##        **
 **           ##                                                    ##        **
 **                                                                           **
 **                                                ... make the atoms dance   **
 **                                                                           **
 **            Copyright (C) by CP2K developers group (2000-2024)             **
 **                      J. Chem. Phys. 152, 194103 (2020)                    **
 **                                                                           **
 *******************************************************************************

 DFT| Spin restricted Kohn-Sham (RKS) calculation                            RKS
 DFT| Multiplicity                                                             1
 DFT| Number of spin states                                                    1
 DFT| Charge                                                                   0
 DFT| Self-interaction correction (SIC)                                       NO
 DFT| Cutoffs: density                                              1.000000E-10
 DFT|          gradient                                             1.000000E-10
 DFT|          tau                                                  1.000000E-10
 DFT|          cutoff_smoothing_range                               0.000000E+00
 DFT| XC density smoothing                                                  NONE
 DFT| XC derivatives                                                          PW

 FUNCTIONAL| BECKE88:
 FUNCTIONAL| A. Becke, Phys. Rev. A 38, 3098 (1988) {LDA version}               
 FUNCTIONAL| LYP:
 FUNCTIONAL| C. Lee, W. Yang, R.G. Parr, Phys. Rev. B, 37, 785 (1988) {LDA versi
 FUNCTIONAL| on}                                                                
 FUNCTIONAL| VWN:
 FUNCTIONAL| S. H. Vosko, L. Wilk and M. Nusair, Can. J. Phys. 58, 1200 (1980) {
 FUNCTIONAL| LDA version}                                                       
 FUNCTIONAL| XALPHA:
 FUNCTIONAL| Dirac/Slater local exchange; parameter=  0.666 {LDA}               

 vdW POTENTIAL|                                                   Pair Potential
 vdW POTENTIAL|          DFT-D3 (Version 3.1)
 vdW POTENTIAL|          Potential Form: S. Grimme et al, JCP 132: 154104 (2010)
 vdW POTENTIAL|          Zero Damping
 vdW POTENTIAL|          Cutoff Radius [Bohr]:                             37.79
 vdW POTENTIAL|          s6 Scaling Factor:                               1.0000
 vdW POTENTIAL|          sr6 Scaling Factor:                              1.2610
 vdW POTENTIAL|          s8 Scaling Factor:                               1.7030
 vdW POTENTIAL|          Cutoff for CN calculation:                   0.1000E-05

 QS| Method:                                                                GAPW
 QS| Density plane wave grid type                        NON-SPHERICAL FULLSPACE
 QS| Number of grid levels:                                                    4
 QS| Density cutoff [a.u.]:                                                200.0
 QS| Multi grid cutoff [a.u.]: 1) grid level                               200.0
 QS|                           2) grid level                                66.7
 QS|                           3) grid level                                22.2
 QS|                           4) grid level                                 7.4
 QS| Grid level progression factor:                                          3.0
 QS| Relative density cutoff [a.u.]:                                        30.0
 QS| Interaction thresholds: eps_pgf_orb:                                1.0E-07
 QS|                         eps_filter_matrix:                          0.0E+00
 QS|                         eps_core_charge:                            1.0E-16
 QS|                         eps_rho_gspace:                             1.0E-14
 QS|                         eps_rho_rspace:                             1.0E-14
 QS|                         eps_gvg_rspace:                             1.0E-07
 QS|                         eps_ppl:                                    1.0E-02
 QS|                         eps_ppnl:                                   1.0E-09
 QS| GAPW|      One center basis extended with primitives (small:s)
 QS| GAPW|                   eps_fit:                                    1.0E-04
 QS| GAPW|                   eps_iso:                                    1.0E-12
 QS| GAPW|                   eps_svd:                                    1.0E-08
 QS| GAPW|                   eps_cpc:                                    1.0E-14
 QS| GAPW|   atom-r-grid: quadrature:                                     GC_LOG
 QS| GAPW|      atom-s-grid:  max l :                                          6
 QS| GAPW|      max_l_rho0 :                                                   4


 ATOMIC KIND INFORMATION

  1. Atomic kind: n                                     Number of atoms:       2

     Orbital Basis Set                                        Ahlrichs-def2-TZVP

       Number of orbital shell sets:                                          11
       Number of orbital shells:                                              11
       Number of primitive Cartesian functions:                               20
       Number of Cartesian basis functions:                                   36
       Number of spherical basis functions:                                   31
       Norm type:                                                              2

       Normalised Cartesian orbitals:

                        Set   Shell   Orbital            Exponent    Coefficient

                          1       1    1s            19730.800647       0.695604
                                                      2957.895874       1.298610
                                                       673.221336       2.219088
                                                       190.682495       3.463661
                                                        62.295442       4.696756
                                                        22.654161       4.952251

                          2       1    1s                8.979148       2.388068
                                                         3.686300       0.733788

                          3       1    1s                0.846601       0.629027

                          4       1    1s                0.336471       0.314863

                          5       1    1s                0.136477       0.160031

                          6       1    1px              49.200381       2.126481
                                                        11.346791       2.327937
                                                         3.427397       2.048573
                                                         1.178553       1.260732
                          6       1    1py              49.200381       2.126481
                                                        11.346791       2.327937
                                                         3.427397       2.048573
                                                         1.178553       1.260732
                          6       1    1pz              49.200381       2.126481
                                                        11.346791       2.327937
                                                         3.427397       2.048573
                                                         1.178553       1.260732

                          7       1    1px               0.416422       0.476823
                          7       1    1py               0.416422       0.476823
                          7       1    1pz               0.416422       0.476823

                          8       1    1px               0.142608       0.124917
                          8       1    1py               0.142608       0.124917
                          8       1    1pz               0.142608       0.124917

                          9       1    1dx2              1.654000       3.970513
                          9       1    1dxy              1.654000       6.877130
                          9       1    1dxz              1.654000       6.877130
                          9       1    1dy2              1.654000       3.970513
                          9       1    1dyz              1.654000       6.877130
                          9       1    1dz2              1.654000       3.970513

                         10       1    1dx2              0.469000       0.437484
                         10       1    1dxy              0.469000       0.757744
                         10       1    1dxz              0.469000       0.757744
                         10       1    1dy2              0.469000       0.437484
                         10       1    1dyz              0.469000       0.757744
                         10       1    1dz2              0.469000       0.437484

                         11       1    1fx3              1.093000       1.798249
                         11       1    1fx2y             1.093000       4.021007
                         11       1    1fx2z             1.093000       4.021007
                         11       1    1fxy2             1.093000       4.021007
                         11       1    1fxyz             1.093000       6.964588
                         11       1    1fxz2             1.093000       4.021007
                         11       1    1fy3              1.093000       1.798249
                         11       1    1fy2z             1.093000       4.021007
                         11       1    1fyz2             1.093000       4.021007
                         11       1    1fz3              1.093000       1.798249

       Atomic covalent radius [Angstrom]:                                  0.750

       Atomic van der Waals radius [Angstrom]:                             1.550

     The atoms of this atomic kind are PAW atoms (GAPW):
       Hard Gaussian function radius:                                      1.400
       Rho0 radius:                                                        1.400
       Maximum GTO radius used for PAW projector construction:            24.566

     GAPW Soft Basis Set                                 Ahlrichs-def2-TZVP_soft

       Number of orbital shell sets:                                          11
       Number of orbital shells:                                              11
       Number of primitive Cartesian functions:                               11
       Number of Cartesian basis functions:                                   36
       Number of spherical basis functions:                                   31
       Norm type:                                                              2

       Normalised Cartesian orbitals:

                        Set   Shell   Orbital            Exponent    Coefficient

                          1       1    1s         

                          2       1    1s                3.686300       0.733788

                          3       1    1s                0.846601       0.629027

                          4       1    1s                0.336471       0.314863

                          5       1    1s                0.136477       0.160031

                          6       1    1px               3.427397       2.048573
                                                         1.178553       1.260732
                          6       1    1py               3.427397       2.048573
                                                         1.178553       1.260732
                          6       1    1pz               3.427397       2.048573
                                                         1.178553       1.260732

                          7       1    1px               0.416422       0.476823
                          7       1    1py               0.416422       0.476823
                          7       1    1pz               0.416422       0.476823

                          8       1    1px               0.142608       0.124917
                          8       1    1py               0.142608       0.124917
                          8       1    1pz               0.142608       0.124917

                          9       1    1dx2              1.654000       3.970513
                          9       1    1dxy              1.654000       6.877130
                          9       1    1dxz              1.654000       6.877130
                          9       1    1dy2              1.654000       3.970513
                          9       1    1dyz              1.654000       6.877130
                          9       1    1dz2              1.654000       3.970513

                         10       1    1dx2              0.469000       0.437484
                         10       1    1dxy              0.469000       0.757744
                         10       1    1dxz              0.469000       0.757744
                         10       1    1dy2              0.469000       0.437484
                         10       1    1dyz              0.469000       0.757744
                         10       1    1dz2              0.469000       0.437484

                         11       1    1fx3              1.093000       1.798249
                         11       1    1fx2y             1.093000       4.021007
                         11       1    1fx2z             1.093000       4.021007
                         11       1    1fxy2             1.093000       4.021007
                         11       1    1fxyz             1.093000       6.964588
                         11       1    1fxz2             1.093000       4.021007
                         11       1    1fy3              1.093000       1.798249
                         11       1    1fy2z             1.093000       4.021007
                         11       1    1fyz2             1.093000       4.021007
                         11       1    1fz3              1.093000       1.798249

     AE Potential information for                                            ALL

       Description:                                       All-electron potential
                                          Krack, Parrinello, PCCP 2, 2105 (2000)

       Gaussian exponent of the core charge distribution:               5.979100
       Electronic configuration (s p d ...):                           4   3   0

  2. Atomic kind: c                                     Number of atoms:       4

     Orbital Basis Set                                        Ahlrichs-def2-TZVP

       Number of orbital shell sets:                                          11
       Number of orbital shells:                                              11
       Number of primitive Cartesian functions:                               20
       Number of Cartesian basis functions:                                   36
       Number of spherical basis functions:                                   31
       Norm type:                                                              2

       Normalised Cartesian orbitals:

                        Set   Shell   Orbital            Exponent    Coefficient

                          1       1    1s            13575.349682       0.543591
                                                      2035.233368       1.014554
                                                       463.225624       1.731573
                                                       131.200196       2.691038
                                                        42.853016       3.604455
                                                        15.584186       3.702556

                          2       1    1s                6.206714       1.838354
                                                         2.576490       0.544758

                          3       1    1s                0.576963       0.471815

                          4       1    1s                0.229728       0.236494

                          5       1    1s                0.095164       0.122114

                          6       1    1px              34.697232       1.359665
                                                         7.958262       1.451259
                                                         2.378083       1.270923
                                                         0.814332       0.802572
                          6       1    1py              34.697232       1.359665
                                                         7.958262       1.451259
                                                         2.378083       1.270923
                                                         0.814332       0.802572
                          6       1    1pz              34.697232       1.359665
                                                         7.958262       1.451259
                                                         2.378083       1.270923
                                                         0.814332       0.802572

                          7       1    1px               0.288875       0.301876
                          7       1    1py               0.288875       0.301876
                          7       1    1pz               0.288875       0.301876

                          8       1    1px               0.100568       0.080727
                          8       1    1py               0.100568       0.080727
                          8       1    1pz               0.100568       0.080727

                          9       1    1dx2              1.097000       1.935401
                          9       1    1dxy              1.097000       3.352214
                          9       1    1dxz              1.097000       3.352214
                          9       1    1dy2              1.097000       1.935401
                          9       1    1dyz              1.097000       3.352214
                          9       1    1dz2              1.097000       1.935401

                         10       1    1dx2              0.318000       0.221644
                         10       1    1dxy              0.318000       0.383899
                         10       1    1dxz              0.318000       0.383899
                         10       1    1dy2              0.318000       0.221644
                         10       1    1dyz              0.318000       0.383899
                         10       1    1dz2              0.318000       0.221644

                         11       1    1fx3              0.761000       0.796288
                         11       1    1fx2y             0.761000       1.780553
                         11       1    1fx2z             0.761000       1.780553
                         11       1    1fxy2             0.761000       1.780553
                         11       1    1fxyz             0.761000       3.084008
                         11       1    1fxz2             0.761000       1.780553
                         11       1    1fy3              0.761000       0.796288
                         11       1    1fy2z             0.761000       1.780553
                         11       1    1fyz2             0.761000       1.780553
                         11       1    1fz3              0.761000       0.796288

       Atomic covalent radius [Angstrom]:                                  0.770

       Atomic van der Waals radius [Angstrom]:                             1.700

     The atoms of this atomic kind are PAW atoms (GAPW):
       Hard Gaussian function radius:                                      1.520
       Rho0 radius:                                                        1.520
       Maximum GTO radius used for PAW projector construction:            24.566

     GAPW Soft Basis Set                                 Ahlrichs-def2-TZVP_soft

       Number of orbital shell sets:                                          11
       Number of orbital shells:                                              11
       Number of primitive Cartesian functions:                               11
       Number of Cartesian basis functions:                                   36
       Number of spherical basis functions:                                   31
       Norm type:                                                              2

       Normalised Cartesian orbitals:

                        Set   Shell   Orbital            Exponent    Coefficient

                          1       1    1s         

                          2       1    1s                2.576490       0.544758

                          3       1    1s                0.576963       0.471815

                          4       1    1s                0.229728       0.236494

                          5       1    1s                0.095164       0.122114

                          6       1    1px               2.378083       1.270923
                                                         0.814332       0.802572
                          6       1    1py               2.378083       1.270923
                                                         0.814332       0.802572
                          6       1    1pz               2.378083       1.270923
                                                         0.814332       0.802572

                          7       1    1px               0.288875       0.301876
                          7       1    1py               0.288875       0.301876
                          7       1    1pz               0.288875       0.301876

                          8       1    1px               0.100568       0.080727
                          8       1    1py               0.100568       0.080727
                          8       1    1pz               0.100568       0.080727

                          9       1    1dx2              1.097000       1.935401
                          9       1    1dxy              1.097000       3.352214
                          9       1    1dxz              1.097000       3.352214
                          9       1    1dy2              1.097000       1.935401
                          9       1    1dyz              1.097000       3.352214
                          9       1    1dz2              1.097000       1.935401

                         10       1    1dx2              0.318000       0.221644
                         10       1    1dxy              0.318000       0.383899
                         10       1    1dxz              0.318000       0.383899
                         10       1    1dy2              0.318000       0.221644
                         10       1    1dyz              0.318000       0.383899
                         10       1    1dz2              0.318000       0.221644

                         11       1    1fx3              0.761000       0.796288
                         11       1    1fx2y             0.761000       1.780553
                         11       1    1fx2z             0.761000       1.780553
                         11       1    1fxy2             0.761000       1.780553
                         11       1    1fxyz             0.761000       3.084008
                         11       1    1fxz2             0.761000       1.780553
                         11       1    1fy3              0.761000       0.796288
                         11       1    1fy2z             0.761000       1.780553
                         11       1    1fyz2             0.761000       1.780553
                         11       1    1fz3              0.761000       0.796288

     AE Potential information for                                            ALL

       Description:                                       All-electron potential
                                          Krack, Parrinello, PCCP 2, 2105 (2000)

       Gaussian exponent of the core charge distribution:               4.109048
       Electronic configuration (s p d ...):                           4   2   0

  3. Atomic kind: h                                     Number of atoms:       4

     Orbital Basis Set                                        Ahlrichs-def2-TZVP

       Number of orbital shell sets:                                           4
       Number of orbital shells:                                               4
       Number of primitive Cartesian functions:                                6
       Number of Cartesian basis functions:                                    6
       Number of spherical basis functions:                                    6
       Norm type:                                                              2

       Normalised Cartesian orbitals:

                        Set   Shell   Orbital            Exponent    Coefficient

                          1       1    1s               34.061341       0.255630
                                                         5.123575       0.461360
                                                         1.164663       0.681121

                          2       1    1s                0.327230       0.308355

                          3       1    1s                0.103072       0.129648

                          4       1    1px               0.800000       1.078456
                          4       1    1py               0.800000       1.078456
                          4       1    1pz               0.800000       1.078456

       Atomic covalent radius [Angstrom]:                                  0.320

       Atomic van der Waals radius [Angstrom]:                             1.090

     The atoms of this atomic kind are PAW atoms (GAPW):
       Hard Gaussian function radius:                                      1.000
       Rho0 radius:                                                        1.000
       Maximum GTO radius used for PAW projector construction:            24.566

     GAPW Soft Basis Set                                 Ahlrichs-def2-TZVP_soft

       Number of orbital shell sets:                                           4
       Number of orbital shells:                                               4
       Number of primitive Cartesian functions:                                5
       Number of Cartesian basis functions:                                    6
       Number of spherical basis functions:                                    6
       Norm type:                                                              2

       Normalised Cartesian orbitals:

                        Set   Shell   Orbital            Exponent    Coefficient

                          1       1    1s                5.123575       0.461360
                                                         1.164663       0.681121

                          2       1    1s                0.327230       0.308355

                          3       1    1s                0.103072       0.129648

                          4       1    1px               0.800000       1.078456
                          4       1    1py               0.800000       1.078456
                          4       1    1pz               0.800000       1.078456

     AE Potential information for                                            ALL

       Description:                                       All-electron potential
                                          Krack, Parrinello, PCCP 2, 2105 (2000)

       Gaussian exponent of the core charge distribution:              12.500000
       Electronic configuration (s p d ...):                           1   0   0


 MOLECULE KIND INFORMATION


 All atoms are their own molecule, skipping detailed information


 TOTAL NUMBERS AND MAXIMUM NUMBERS

  Total number of            - Atomic kinds:                                   3
                             - Atoms:                                         10
                             - Shell sets:                                    82
                             - Shells:                                        82
                             - Primitive Cartesian functions:                144
                             - Cartesian basis functions:                    240
                             - Spherical basis functions:                    210

  Maximum angular momentum of the orbital basis functions:                     3


 MODULE QUICKSTEP: ATOMIC COORDINATES IN ANGSTROM

   Atom Kind Element         X             Y             Z       Z(eff)     Mass
      1    1 n     7      6.829946      8.161817      7.509781   7.0000  14.0067
      2    1 n     7      7.002121      5.769177      6.211872   7.0000  14.0067
      3    2 c     6      6.961630      7.149382      8.240656   6.0000  12.0107
      4    2 c     6      6.971492      5.850745      7.529752   6.0000  12.0107
      5    2 c     6      6.835155      8.223262      6.261632   6.0000  12.0107
      6    2 c     6      6.909871      6.895783      5.620862   6.0000  12.0107
      7    3 h     1      7.172172      7.035155      9.430391   1.0000   1.0079
      8    3 h     1      7.127698      4.870792      8.273990   1.0000   1.0079
      9    3 h     1      6.827828      9.129208      5.702915   1.0000   1.0079
     10    3 h     1      6.902468      7.195184      4.569609   1.0000   1.0079



 SCF PARAMETERS         Density guess:                                   RESTART
                        --------------------------------------------------------
                        max_scf:                                              50
                        max_scf_history:                                       0
                        max_diis:                                              4
                        --------------------------------------------------------
                        eps_scf:                                        1.00E-08
                        eps_scf_history:                                0.00E+00
                        eps_diis:                                       1.00E-01
                        eps_eigval:                                     1.00E-05
                        --------------------------------------------------------
                        level_shift [a.u.]:                             0.000000
                        --------------------------------------------------------
                        Outer loop SCF in use 
                        No variables optimised in outer loop
                        eps_scf                                         1.00E-08
                        max_scf                                              900
                        No outer loop optimization
                        step_size                                       5.00E-01

 PW_GRID| Information for grid number                                          1
 PW_GRID| Grid distributed over                                    16 processors
 PW_GRID| Real space group dimensions                                    16    1
 PW_GRID| the grid is blocked:                                                NO
 PW_GRID| Cutoff [a.u.]                                                    400.0
 PW_GRID| spherical cutoff:                                                   NO
 PW_GRID|   Bounds   1           -120     119                Points:         240
 PW_GRID|   Bounds   2           -120     119                Points:         240
 PW_GRID|   Bounds   3           -120     119                Points:         240
 PW_GRID| Volume element (a.u.^3)  0.1340E-02     Volume (a.u.^3)     18517.4301
 PW_GRID| Grid span                                                    FULLSPACE
 PW_GRID|   Distribution                         Average         Max         Min
 PW_GRID|   G-Vectors                           864000.0      864000      864000
 PW_GRID|   G-Rays                                3600.0        3600        3600
 PW_GRID|   Real Space Points                   864000.0      864000      864000

 PW_GRID| Information for grid number                                          2
 PW_GRID| Number of the reference grid                                         1
 PW_GRID| Grid distributed over                                    16 processors
 PW_GRID| Real space group dimensions                                    16    1
 PW_GRID| the grid is blocked:                                                NO
 PW_GRID| Cutoff [a.u.]                                                    200.0
 PW_GRID| spherical cutoff:                                                   NO
 PW_GRID|   Bounds   1            -90      89                Points:         180
 PW_GRID|   Bounds   2            -90      89                Points:         180
 PW_GRID|   Bounds   3            -90      89                Points:         180
 PW_GRID| Volume element (a.u.^3)  0.3175E-02     Volume (a.u.^3)     18517.4301
 PW_GRID| Grid span                                                    FULLSPACE
 PW_GRID|   Distribution                         Average         Max         Min
 PW_GRID|   G-Vectors                           364500.0      364680      364320
 PW_GRID|   G-Rays                                2025.0        2026        2024
 PW_GRID|   Real Space Points                   364500.0      388800      356400

 PW_GRID| Information for grid number                                          3
 PW_GRID| Number of the reference grid                                         2
 PW_GRID| Grid distributed over                                    16 processors
 PW_GRID| Real space group dimensions                                    16    1
 PW_GRID| the grid is blocked:                                                NO
 PW_GRID| Cutoff [a.u.]                                                     66.7
 PW_GRID| spherical cutoff:                                                   NO
 PW_GRID|   Bounds   1            -50      49                Points:         100
 PW_GRID|   Bounds   2            -50      49                Points:         100
 PW_GRID|   Bounds   3            -50      49                Points:         100
 PW_GRID| Volume element (a.u.^3)  0.1852E-01     Volume (a.u.^3)     18517.4301
 PW_GRID| Grid span                                                    FULLSPACE
 PW_GRID|   Distribution                         Average         Max         Min
 PW_GRID|   G-Vectors                            62500.0       62600       62400
 PW_GRID|   G-Rays                                 625.0         626         624
 PW_GRID|   Real Space Points                    62500.0       70000       60000

 PW_GRID| Information for grid number                                          4
 PW_GRID| Number of the reference grid                                         2
 PW_GRID| Grid distributed over                                    16 processors
 PW_GRID| Real space group dimensions                                    16    1
 PW_GRID| the grid is blocked:                                                NO
 PW_GRID| Cutoff [a.u.]                                                     22.2
 PW_GRID| spherical cutoff:                                                   NO
 PW_GRID|   Bounds   1            -30      29                Points:          60
 PW_GRID|   Bounds   2            -30      29                Points:          60
 PW_GRID|   Bounds   3            -30      29                Points:          60
 PW_GRID| Volume element (a.u.^3)  0.8573E-01     Volume (a.u.^3)     18517.4301
 PW_GRID| Grid span                                                    FULLSPACE
 PW_GRID|   Distribution                         Average         Max         Min
 PW_GRID|   G-Vectors                            13500.0       13560       13440
 PW_GRID|   G-Rays                                 225.0         226         224
 PW_GRID|   Real Space Points                    13500.0       14400       10800

 PW_GRID| Information for grid number                                          5
 PW_GRID| Number of the reference grid                                         2
 PW_GRID| Grid distributed over                                    16 processors
 PW_GRID| Real space group dimensions                                    16    1
 PW_GRID| the grid is blocked:                                                NO
 PW_GRID| Cutoff [a.u.]                                                      7.4
 PW_GRID| spherical cutoff:                                                   NO
 PW_GRID|   Bounds   1            -18      17                Points:          36
 PW_GRID|   Bounds   2            -18      17                Points:          36
 PW_GRID|   Bounds   3            -18      17                Points:          36
 PW_GRID| Volume element (a.u.^3)  0.3969         Volume (a.u.^3)     18517.4301
 PW_GRID| Grid span                                                    FULLSPACE
 PW_GRID|   Distribution                         Average         Max         Min
 PW_GRID|   G-Vectors                             2916.0        2952        2880
 PW_GRID|   G-Rays                                  81.0          82          80
 PW_GRID|   Real Space Points                     2916.0        3888        2592

 POISSON| Solver                                          Martyna-Tuckerman (MT)
 POISSON| MT| Alpha                                                        7.000
 POISSON| MT| Relative cutoff                                                2.0
 POISSON| Periodicity                                                       NONE

 RS_GRID| Information for grid number                                          2
 RS_GRID|   Bounds   1            -90      89                Points:         180
 RS_GRID|   Bounds   2            -90      89                Points:         180
 RS_GRID|   Bounds   3            -90      89                Points:         180
 RS_GRID| Real space distribution over                                  4 groups
 RS_GRID| Real space distribution along direction                              2
 RS_GRID| Border size                                                         31
 RS_GRID| Real space distribution over                                  4 groups
 RS_GRID| Real space distribution along direction                              3
 RS_GRID| Border size                                                         31
 RS_GRID|   Distribution                         Average         Max         Min
 RS_GRID|   Planes                                 107.0         107         107
 RS_GRID|   Distribution                         Average         Max         Min
 RS_GRID|   Planes                                 107.0         107         107

 RS_GRID| Information for grid number                                          3
 RS_GRID|   Bounds   1            -50      49                Points:         100
 RS_GRID|   Bounds   2            -50      49                Points:         100
 RS_GRID|   Bounds   3            -50      49                Points:         100
 RS_GRID| Real space fully replicated
 RS_GRID| Group size                                                           1

 RS_GRID| Information for grid number                                          4
 RS_GRID|   Bounds   1            -30      29                Points:          60
 RS_GRID|   Bounds   2            -30      29                Points:          60
 RS_GRID|   Bounds   3            -30      29                Points:          60
 RS_GRID| Real space fully replicated
 RS_GRID| Group size                                                           1

 RS_GRID| Information for grid number                                          5
 RS_GRID|   Bounds   1            -18      17                Points:          36
 RS_GRID|   Bounds   2            -18      17                Points:          36
 RS_GRID|   Bounds   3            -18      17                Points:          36
 RS_GRID| Real space fully replicated
 RS_GRID| Group size                                                           1

  HFX_INFO| Replica ID:                                                        1
  HFX_INFO| FRACTION:                                               0.2000000000
  HFX_INFO| Interaction Potential:                                       COULOMB
  HFX_INFO| EPS_SCHWARZ:                                                 1.0E-10
  HFX_INFO| EPS_SCHWARZ_FORCES                                           1.0E-08
  HFX_INFO| EPS_STORAGE_SCALING:                                         1.0E+00
  HFX_INFO| NBINS:                                                            64
  HFX_INFO| BLOCK_SIZE:                                                        1
  HFX_INFO| Number of periodic shells considered:                           NONE
  HFX_INFO| Number of periodic cells considered:                            NONE


 Number of electrons:                                                         42
 Number of occupied orbitals:                                                 21
 Number of molecular orbitals:                                                21

 Number of orbital functions:                                                210
 Number of independent orbital functions:                                    210

 Extrapolation method: initial_guess


 SCF WAVEFUNCTION OPTIMIZATION

  ----------------------------------- OT ---------------------------------------
  Minimizer      : DIIS                : direct inversion
                                         in the iterative subspace
                                         using   7 DIIS vectors
                                         safer DIIS on
  Preconditioner : FULL_ALL            : diagonalization, state selective
  Precond_solver : DEFAULT
  stepsize       :    0.15000000                  energy_gap     :    0.08000000
  eps_taylor     :   0.10000E-15                  max_taylor     :             4
  ----------------------------------- OT ---------------------------------------

  Step     Update method      Time    Convergence         Total energy    Change
  ------------------------------------------------------------------------------

  HFX_MEM_INFO| Est. max. program size before HFX [MiB]:                     637
  HFX_MEM_INFO| Number of cart. primitive ERI's calculated:           1722908111
  HFX_MEM_INFO| Number of sph. ERI's calculated:                       315879906
  HFX_MEM_INFO| Number of sph. ERI's stored in-core:                   315879906
  HFX_MEM_INFO| Number of sph. ERI's stored on disk:                           0
  HFX_MEM_INFO| Number of sph. ERI's calculated on the fly:                    0
  HFX_MEM_INFO| Total memory consumption ERI's RAM [MiB]:                    942
  HFX_MEM_INFO| Whereof max-vals [MiB]:                                        5
  HFX_MEM_INFO| Total compression factor ERI's RAM:                         2.56
  HFX_MEM_INFO| Total memory consumption ERI's disk [MiB]:                     0
  HFX_MEM_INFO| Total compression factor ERI's disk:                        0.00
  HFX_MEM_INFO| Size of density/Fock matrix [MiB]:                             0
  HFX_MEM_INFO| Size of buffers [MiB]:                                         0
  HFX_MEM_INFO| Est. max. program size after HFX  [MiB]:                     696

     1 OT DIIS     0.15E+00    3.8     0.00933639      -264.1448585088 -2.64E+02
     2 OT DIIS     0.15E+00    0.7     0.00430151      -264.1830080320 -3.81E-02
     3 OT DIIS     0.15E+00    0.7     0.00246239      -264.1906960600 -7.69E-03
     4 OT DIIS     0.15E+00    0.7     0.00042324      -264.1925057699 -1.81E-03
     5 OT DIIS     0.15E+00    0.7     0.00018735      -264.1925489753 -4.32E-05
     6 OT DIIS     0.15E+00    0.7     0.00004649      -264.1925601783 -1.12E-05
     7 OT DIIS     0.15E+00    0.7     0.00002464      -264.1925610907 -9.12E-07
     8 OT DIIS     0.15E+00    0.7     0.00000703      -264.1925612675 -1.77E-07
     9 OT DIIS     0.15E+00    0.7     0.00000268      -264.1925612902 -2.27E-08
    10 OT DIIS     0.15E+00    0.7     0.00000107      -264.1925612936 -3.36E-09
    11 OT DIIS     0.15E+00    0.7     0.00000044      -264.1925612942 -6.25E-10
    12 OT DIIS     0.15E+00    0.7     0.00000022      -264.1925612943 -7.91E-11
    13 OT DIIS     0.15E+00    0.7     0.00000010      -264.1925612943 -2.11E-11
    14 OT DIIS     0.15E+00    0.7     0.00000004      -264.1925612943  5.68E-13
    15 OT DIIS     0.15E+00    0.7     0.00000002      -264.1925612943  4.38E-12
    16 OT DIIS     0.15E+00    0.7     8.2721E-09      -264.1925612943  6.76E-12

  *** SCF run converged in    16 steps ***


  Electronic density on regular grids:        -30.6420219185       11.3579780815
  Core density on regular grids:               42.0000000000       -0.0000000000
  Hard and soft densities (Lebedev):          -97.0556557864      -85.6976776979
  Total Rho_soft + Rho1_hard - Rho1_soft      -42.0000000069
  Total charge density (r-space):              -0.0000000069
  Total Rho_soft + Rho0_soft (g-space):        -0.0000000327

  Overlap energy of the core charge distribution:               0.00001156950095
  Self energy of the core charge distribution:               -217.69203579805162
  Core Hamiltonian energy:                                    -41.72601371720228
  Hartree energy:                                             109.57094253861575
  Exchange-correlation energy:                                -11.22672135270122
  Hartree-Fock Exchange energy:                                -7.06246832370271
  Dispersion energy:                                           -0.00390393976507

  GAPW| Exc from hard and soft atomic rho1:                   -18.55780247160254
  GAPW| local Eh = 1 center integrals:                        -77.49456979939151

  Total energy:                                              -264.19256129430028

  outer SCF iter =    1 RMS gradient =   0.83E-08 energy =       -264.1925612943
  outer SCF loop converged in   1 iterations or   16 steps


 !-----------------------------------------------------------------------------!
                     Mulliken Population Analysis

 #  Atom  Element  Kind  Atomic population                           Net charge
       1     n        1          7.113493                             -0.113493
       2     n        1          7.178078                             -0.178078
       3     c        2          6.053487                             -0.053487
       4     c        2          6.024205                             -0.024205
       5     c        2          6.046529                             -0.046529
       6     c        2          6.052041                             -0.052041
       7     h        3          0.880803                              0.119197
       8     h        3          0.890102                              0.109898
       9     h        3          0.869310                              0.130690
      10     h        3          0.891953                              0.108047
 # Total charge                             42.000000                  0.000000

 !-----------------------------------------------------------------------------!

 !-----------------------------------------------------------------------------!
                           Hirshfeld Charges

  #Atom  Element  Kind  Ref Charge     Population                    Net charge
      1       n      1       7.000          7.260                        -0.260
      2       n      1       7.000          7.243                        -0.243
      3       c      2       6.000          6.356                        -0.356
      4       c      2       6.000          6.359                        -0.359
      5       c      2       6.000          6.364                        -0.364
      6       c      2       6.000          6.345                        -0.345
      7       h      3       1.000          0.513                         0.487
      8       h      3       1.000          0.520                         0.480
      9       h      3       1.000          0.509                         0.491
     10       h      3       1.000          0.516                         0.484

  Total Charge                                                            0.014
 !-----------------------------------------------------------------------------!

 *******************************************************************************
 **                                                                           **
 **         ######## #######   #######   ######## #######  ########           **
 **            ##    ##     ## ##     ## ##       ##   ##     ##              **
 **            ##    ##     ## ##     ## ######   #######     ##              **
 **            ##    ##     ## ##     ## ##       ##          ##              **
 **            ##    #######   #######   ##       ##          ##              **
 **                                                                           **
 *******************************************************************************
 KERNEL|                                                                    FULL
 FUNCTIONAL| BECKE88:
 FUNCTIONAL| A. Becke, Phys. Rev. A 38, 3098 (1988) {LDA version}               
 FUNCTIONAL| LYP:
 FUNCTIONAL| C. Lee, W. Yang, R.G. Parr, Phys. Rev. B, 37, 785 (1988) {LDA versi
 FUNCTIONAL| on}                                                                
 FUNCTIONAL| VWN:
 FUNCTIONAL| S. H. Vosko, L. Wilk and M. Nusair, Can. J. Phys. 58, 1200 (1980) {
 FUNCTIONAL| LDA version}                                                       
 FUNCTIONAL| XALPHA:
 FUNCTIONAL| Dirac/Slater local exchange; parameter=  0.666 {LDA}               
 KERNEL|                                                          Exact Exchange
 KERNEL| Spin symmetry of excitations                                    Singlet
 TDDFPT| Number of states calculated                                           9
 TDDFPT| Number of Davidson iterations                                       100
 TDDFPT| Davidson iteration convergence                                0.367E-09
 TDDFPT| Max. number of Krylov space vectors                                5000
 TDDFPT| Molecular Orbitals:        Spin       AOs       Occ      Virt     Total
 TDDFPT|                               1       210        21       189       210
 
 -------------------------------------------------------------------------------
 -                            TDDFPT Initial Guess                             -
 -------------------------------------------------------------------------------
          State         Occupied      ->      Virtual          Excitation
          number         orbital              orbital          energy (eV)
 -------------------------------------------------------------------------------
             1               21                   22              4.68406
             2               21                   23              4.97815
             3               20                   22              5.94020
             4               20                   23              6.23428
             5               21                   24              7.16722
             6               19                   22              7.44995
             7               19                   23              7.74403
             8               21                   25              7.78678
             9               21                   26              8.19706

      Number of active states:                                       3969
 -------------------------------------------------------------------------------
 
 -------------------------------------------------------------------------------
 -                      TDDFPT WAVEFUNCTION OPTIMIZATION                       -
 -------------------------------------------------------------------------------

          Step            Time         Convergence           Conv. states
 -------------------------------------------------------------------------------

    State    Exc. energy (eV)      Convergence (eV)
        1       3.2830714            -1.4010E+00
        2       3.6831018            -1.2950E+00
        3       6.1381279             1.9793E-01
        4       6.5173339             2.8305E-01
        5       6.5566782            -6.1054E-01
        6       6.8979688            -5.5198E-01
        7       7.2757929            -4.6824E-01
        8       7.4012880            -3.8549E-01
        9       7.8849948            -3.1207E-01

             1             7.2          5.1486E-02                      0

    State    Exc. energy (eV)      Convergence (eV)
        1       3.2590803            -2.3991E-02
        2       3.6302879            -5.2814E-02
        3       5.7325066            -4.0562E-01
        4       6.1004263            -4.1691E-01
        5       6.4022689            -1.5441E-01
        6       6.4326293            -4.6534E-01
        7       6.4474192            -8.2837E-01
        8       6.9492878            -4.5200E-01
        9       7.2890992            -5.9590E-01

             2             7.1          3.0442E-02                      0

    State    Exc. energy (eV)      Convergence (eV)
        1       3.2579468            -1.1336E-03
        2       3.6283188            -1.9691E-03
        3       5.7011627            -3.1344E-02
        4       6.0953336            -5.0927E-03
        5       6.2728148            -1.2945E-01
        6       6.3935308            -3.9099E-02
        7       6.4266634            -2.0756E-02
        8       6.9391169            -1.0171E-02
        9       7.2513377            -3.7762E-02

             3             7.1          4.7573E-03                      0

    State    Exc. energy (eV)      Convergence (eV)
        1       3.2579135            -3.3254E-05
        2       3.6282612            -5.7602E-05
        3       5.7005888            -5.7395E-04
        4       6.0950300            -3.0361E-04
        5       6.2662582            -6.5566E-03
        6       6.3927920            -7.3875E-04
        7       6.4256809            -9.8247E-04
        8       6.9370791            -2.0378E-03
        9       7.2423038            -9.0339E-03

             4             7.1          3.3199E-04                      0

    State    Exc. energy (eV)      Convergence (eV)
        1       3.2579129            -6.0730E-07
        2       3.6282606            -5.8770E-07
        3       5.7005854            -3.3501E-06
        4       6.0950184            -1.1593E-05
        5       6.2661711            -8.7079E-05
        6       6.3927642            -2.7890E-05
        7       6.4256362            -4.4683E-05
        8       6.9368813            -1.9777E-04
        9       7.2412655            -1.0382E-03

             5             7.1          3.8155E-05                      0

    State    Exc. energy (eV)      Convergence (eV)
        1       3.2579129            -3.6956E-09
        2       3.6282606            -4.4830E-09
        3       5.7005854            -6.4699E-08
        4       6.0950181            -3.3511E-07
        5       6.2661693            -1.8415E-06
        6       6.3927625            -1.6142E-06
        7       6.4256342            -2.0725E-06
        8       6.9368656            -1.5685E-05
        9       7.2411121            -1.5345E-04

             6             7.1          5.6394E-06                      2

    State    Exc. energy (eV)      Convergence (eV)
        1       3.2579129            -2.0570E-11
        2       3.6282606            -2.2915E-11
        3       5.7005854            -1.7201E-09
        4       6.0950181            -6.0232E-09
        5       6.2661692            -5.0207E-08
        6       6.3927625            -6.8640E-08
        7       6.4256341            -5.3441E-08
        8       6.9368646            -1.0692E-06
        9       7.2410939            -1.8137E-05

             7             7.1          6.6653E-07                      4

    State    Exc. energy (eV)      Convergence (eV)
        1       3.2579129            -1.1707E-13
        2       3.6282606            -1.4577E-13
        3       5.7005854            -1.8069E-11
        4       6.0950181            -9.0656E-11
        5       6.2661692            -1.1895E-09
        6       6.3927625            -2.1761E-09
        7       6.4256341            -9.2680E-10
        8       6.9368645            -4.2956E-08
        9       7.2410931            -7.9490E-07

             8             7.0          2.9212E-08                      7

    State    Exc. energy (eV)      Convergence (eV)
        1       3.2579129            -9.8185E-15
        2       3.6282606            -4.5316E-15
        3       5.7005854            -1.9033E-13
        4       6.0950181            -1.6004E-12
        5       6.2661692            -2.2607E-11
        6       6.3927625            -3.6876E-11
        7       6.4256341            -1.1075E-11
        8       6.9368645            -1.5142E-09
        9       7.2410931            -3.3002E-08

             9             7.0          1.2128E-09                      8

    State    Exc. energy (eV)      Convergence (eV)
        1       3.2579129            -7.9303E-15
        2       3.6282606            -6.7974E-15
        3       5.7005854             1.8126E-14
        4       6.0950181            -1.5105E-14
        5       6.2661692            -2.5755E-13
        6       6.3927625            -3.8368E-13
        7       6.4256341            -1.3972E-13
        8       6.9368645            -2.8031E-11
        9       7.2410931            -8.0705E-10

            10             7.0          2.9658E-11                      9
 ------------------------- Restart Davidson iterations -------------------------

    State    Exc. energy (eV)      Convergence (eV)
        1       3.2579129             2.2658E-15
        2       3.6282606             9.8185E-15
        3       5.7005854            -1.2084E-14
        4       6.0950181            -1.5105E-15
        5       6.2661692            -7.5527E-15
        6       6.3927625            -8.3079E-15
        7       6.4256341            -4.6071E-14
        8       6.9368645            -8.6101E-14
        9       7.2410931             3.4742E-14

            11             7.0          3.1641E-15                      9
 
 -------------------------------------------------------------------------------
 -  TDDFPT run converged in 11 iteration(s) 
 -------------------------------------------------------------------------------

 R-TDDFPT states of multiplicity 1
 Transition dipoles calculated using length formulation

         State    Excitation        Transition dipole (a.u.)        Oscillator
         number   energy (eV)       x           y           z     strength (a.u.)
         ------------------------------------------------------------------------
 TDDFPT|      1       3.25791  -2.8841E-02 -4.1145E-02 -2.8796E-02   2.67698E-04
 TDDFPT|      2       3.62826  -2.0143E-01 -1.5162E-02  2.9713E-02   3.70543E-03
 TDDFPT|      3       5.70059  -3.9831E-02  5.1419E-01 -6.4817E-01   9.58211E-02
 TDDFPT|      4       6.09502  -2.5500E-02  1.1974E-01  1.4956E-01   5.57811E-03
 TDDFPT|      5       6.26617   3.7693E-02 -9.9619E-01 -5.8804E-01   2.05653E-01
 TDDFPT|      6       6.39276  -1.3057E-02 -2.4145E-01  2.6943E-01   2.05263E-02
 TDDFPT|      7       6.42563  -1.0593E-01  2.8420E-01 -5.4540E-01   6.13091E-02
 TDDFPT|      8       6.93686  -3.2714E-02  4.9042E-01 -8.7997E-01   1.72656E-01
 TDDFPT|      9       7.24109   2.0742E-02  2.2646E-01  2.5331E-01   2.05577E-02

 TDDFPT : CheckSum  =  0.652649E+00
 
 -------------------------------------------------------------------------------
 -                            Excitation analysis                              -
 -------------------------------------------------------------------------------
        State             Occupied              Virtual             Excitation
        number             orbital              orbital             amplitude
 -------------------------------------------------------------------------------
             1   3.25791 eV
                                21                   22              -0.992552
                                21                   23               0.103049
             2   3.62826 eV
                                21                   23              -0.991912
                                21                   22              -0.103237
             3   5.70059 eV
                                20                   23              -0.786487
                                20                   22              -0.419047
                                18                   22              -0.370010
                                18                   23               0.147478
                                21                   24               0.132204
                                21                   25              -0.098671
                                19                   22              -0.060239
             4   6.09502 eV
                                19                   22              -0.981018
                                20                   22              -0.109708
                                20                   23               0.108536
                                18                   22               0.067223
             5   6.26617 eV
                                20                   22               0.828279
                                20                   23              -0.416750
                                18                   23              -0.179163
                                19                   22              -0.154803
                                18                   22              -0.119556
                                21                   38              -0.085377
                                21                   26              -0.065341
                                19                   23               0.058358
                                19                   24               0.053093
             6   6.39276 eV
                                19                   23              -0.854503
                                21                   24               0.473150
                                21                   29              -0.105100
                                21                   26              -0.090535
                                21                   27              -0.083698
                                18                   23              -0.055436
                                18                   22               0.053346
                                20                   22               0.050576
             7   6.42563 eV
                                21                   24              -0.851256
                                19                   23              -0.485351
                                18                   22              -0.089341
                                20                   23              -0.078284
                                21                   27               0.062954
                                21                   29              -0.061337
                                19                   22              -0.050317
             8   6.93686 eV
                                21                   25               0.978347
                                18                   22              -0.116027
                                21                   27              -0.104906
                                21                   26              -0.075151
                                18                   23               0.059909
             9   7.24109 eV
                                21                   26              -0.934219
                                21                   27              -0.250405
                                21                   29              -0.111342
                                21                   25              -0.098757
                                19                   23               0.087430
                                21                   24              -0.081018
                                17                   22               0.068123
                                20                   24               0.067730
                                18                   22               0.055279
 -------------------------------------------------------------------------------
 
 -------------------------------------------------------------------------------
 -                            Natural Orbital analysis                         -
 -------------------------------------------------------------------------------
   STATE NR.      1             3.25791 eV
     Particle-Hole state: 1   Spin:1     Eigenvalue: 0.99876   Sum Eigv: 0.99876
   STATE NR.      2             3.62826 eV
     Particle-Hole state: 1   Spin:1     Eigenvalue: 0.99762   Sum Eigv: 0.99762
   STATE NR.      3             5.70059 eV
     Particle-Hole state: 1   Spin:1     Eigenvalue: 0.80173   Sum Eigv: 0.80173
     Particle-Hole state: 2   Spin:1     Eigenvalue: 0.15897   Sum Eigv: 0.96070
     Particle-Hole state: 3   Spin:1     Eigenvalue: 0.03072   Sum Eigv: 0.99142
   STATE NR.      4             6.09502 eV
     Particle-Hole state: 1   Spin:1     Eigenvalue: 0.98252   Sum Eigv: 0.98252
   STATE NR.      5             6.26617 eV
     Particle-Hole state: 1   Spin:1     Eigenvalue: 0.89288   Sum Eigv: 0.89288
     Particle-Hole state: 2   Spin:1     Eigenvalue: 0.04818   Sum Eigv: 0.94106
     Particle-Hole state: 3   Spin:1     Eigenvalue: 0.02437   Sum Eigv: 0.96543
     Particle-Hole state: 4   Spin:1     Eigenvalue: 0.01243   Sum Eigv: 0.97787
   STATE NR.      6             6.39276 eV
     Particle-Hole state: 1   Spin:1     Eigenvalue: 0.73874   Sum Eigv: 0.73874
     Particle-Hole state: 2   Spin:1     Eigenvalue: 0.25206   Sum Eigv: 0.99080
   STATE NR.      7             6.42563 eV
     Particle-Hole state: 1   Spin:1     Eigenvalue: 0.73495   Sum Eigv: 0.73495
     Particle-Hole state: 2   Spin:1     Eigenvalue: 0.25008   Sum Eigv: 0.98503
   STATE NR.      8             6.93686 eV
     Particle-Hole state: 1   Spin:1     Eigenvalue: 0.97507   Sum Eigv: 0.97507
   STATE NR.      9             7.24109 eV
     Particle-Hole state: 1   Spin:1     Eigenvalue: 0.96777   Sum Eigv: 0.96777
     Particle-Hole state: 2   Spin:1     Eigenvalue: 0.01652   Sum Eigv: 0.98429
 -------------------------------------------------------------------------------
 Ground state orbital alignment:         1.000000[MinVal]      1.000000[Average]
 Excitation vector alignment:                                           1.000000
 Calculate properties for state:   1      with excitation energy      3.25791 eV

  HFX_MEM_INFO| Number of cart. primitive DERIV's calculated:        10878207624
  HFX_MEM_INFO| Number of sph. DERIV's calculated:                    2802209832
  HFX_MEM_INFO| Number of sph. DERIV's stored in-core:                         0
  HFX_MEM_INFO| Number of sph. DERIV's calculated on the fly:         2802209832
  HFX_MEM_INFO| Total memory consumption DERIV's RAM [MiB]:                    0
  HFX_MEM_INFO| Whereof max-vals [MiB]:                                        1
  HFX_MEM_INFO| Total compression factor DERIV's RAM:                       0.00

 !--------------------------- Excited State Energy ----------------------------!
 Results for Excited State Nr.                                                 1
 Excitation Energy [Hartree]                                        0.1197261014
 Total Energy [Hartree]                                          -264.0728351929
 !-----------------------------------------------------------------------------!

[...]
 max memory usage/rank               1.236722E+09
 # max total images/rank                        1
 # max 3D layers                                1
 # MPI messages exchanged                  148416
 MPI messages size (bytes):
  total size                         1.071736E+09
  min size                           0.000000E+00
  max size                          31.744000E+03
  average size                       7.221161E+03
 MPI breakdown and total messages size (bytes):
             size <=      128               86208                        0
       128 < size <=     8192               11832                 79265088
      8192 < size <=    32768               50376                992470752
     32768 < size <=   131072                   0                        0
    131072 < size <=  4194304                   0                        0
   4194304 < size <= 16777216                   0                        0
  16777216 < size                               0                        0
 -------------------------------------------------------------------------------
 -                                                                             -
 -                      DBCSR MESSAGE PASSING PERFORMANCE                      -
 -                                                                             -
 -------------------------------------------------------------------------------
 ROUTINE             CALLS      AVE VOLUME [Bytes]
 MP_Bcast               28                     12.
 MP_Allreduce         6684                      8.
 MP_Alltoall         24436                   2766.
 MP_ISend            24732                   3417.
 MP_IRecv            24732                   3124.
 -------------------------------------------------------------------------------

 -------------------------------------------------------------------------------
 -                                                                             -
 -                                DBM STATISTICS                               -
 -                                                                             -
 -------------------------------------------------------------------------------
    M  x    N  x    K                                          COUNT     PERCENT
 -------------------------------------------------------------------------------

 -------------------------------------------------------------------------------
 -                                                                             -
 -                                GRID STATISTICS                              -
 -                                                                             -
 -------------------------------------------------------------------------------
 LP    KERNEL             BACKEND                              COUNT     PERCENT
 1     collocate ortho    CPU                                 234600      15.62%
 2     collocate ortho    CPU                                 191000      12.72%
 1     integrate ortho    CPU                                 189508      12.62%
 0     collocate ortho    CPU                                 163000      10.85%
 2     integrate ortho    CPU                                 158364      10.54%
 3     collocate ortho    CPU                                 128400       8.55%
 0     integrate ortho    CPU                                 127140       8.47%
 3     integrate ortho    CPU                                 107792       7.18%
 4     collocate ortho    CPU                                  55200       3.68%
 4     integrate ortho    CPU                                  48192       3.21%
 4     collocate general  CPU                                  19392       1.29%
 5     collocate ortho    CPU                                  16800       1.12%
 5     integrate ortho    CPU                                  15312       1.02%
 4     integrate general  CPU                                  14976       1.00%
 2     collocate general  CPU                                  12928       0.86%
 2     integrate general  CPU                                   9984       0.66%
 6     collocate ortho    CPU                                   4200       0.28%
 6     integrate ortho    CPU                                   3948       0.26%
 5     integrate general  CPU                                    384       0.03%
 3     integrate general  CPU                                    256       0.02%
 7     integrate ortho    CPU                                    168       0.01%
 0     collocate general  CPU                                    160       0.01%
 0     integrate general  CPU                                    160       0.01%
 -------------------------------------------------------------------------------

 MEMORY| Estimated peak process memory [MiB]                                1277

 -------------------------------------------------------------------------------
 ----                             MULTIGRID INFO                            ----
 -------------------------------------------------------------------------------
 count for grid        1:         109552          cutoff [a.u.]          200.00
 count for grid        2:          22506          cutoff [a.u.]           66.67
 count for grid        3:           8627          cutoff [a.u.]           22.22
 count for grid        4:           1858          cutoff [a.u.]            7.41
 total gridlevel count  :         142543

 -------------------------------------------------------------------------------
 -                                                                             -
 -                         MESSAGE PASSING PERFORMANCE                         -
 -                                                                             -
 -------------------------------------------------------------------------------

 ROUTINE             CALLS      AVE VOLUME [Bytes]
 MP_Group                5
 MP_Bcast             4559                1029223.
 MP_Allreduce        13722                 147735.
 MP_Sync              1351
 MP_Alltoall          4012               15046217.
 MP_SendRecv          9060                 233876.
 MP_ISendRecv        15315                 125231.
 MP_Wait             32231
 MP_comm_split          33
 MP_ISend            14567                 822486.
 MP_IRecv            14734                 812821.
 -------------------------------------------------------------------------------


 -------------------------------------------------------------------------------
 -                                                                             -
 -                           R E F E R E N C E S                               -
 -                                                                             -
 -------------------------------------------------------------------------------
 
 CP2K version 2024.1 (Development Version), the CP2K developers group (2024).
 CP2K is freely available from https://www.cp2k.org/ .

 Kuehne,Thomas D.; Iannuzzi,Marcella; Del Ben,Mauro;
 Rybkin,Vladimir V.; Seewald,Patrick; Stein,Frederick; Laino,Teodoro;
 Khaliullin,Rustam Z.; Schuett,Ole; Schiffmann,Florian; Golze,Dorothea;
 Wilhelm,Jan; Chulkov,Sergey; Bani-Hashemian,Mohammad Hossein;
 Weber,Valery; Borstnik,Urban; Taillefumier,Mathieu;
 Jakobovits,Alice Shoshana; Lazzaro,Alfio; Pabst,Hans; Mueller,Tiziano;
 Schade,Robert; Guidon,Manuel; Andermatt,Samuel; Holmberg,Nico;
 Schenter,Gregory K.; Hehn,Anna; Bussy,Augustin; Belleflamme,Fabian;
 Tabacchi,Gloria; Gloess,Andreas; Lass,Michael; Bethune,Iain;
 Mundy,Christopher J.; Plessl,Christian; Watkins,Matt;
 VandeVondele,Joost; Krack,Matthias; Hutter,Juerg. 
 The Journal of Chemical Physics, 152 (19), (2020). 
 CP2K: An electronic structure and molecular dynamics software package -
 Quickstep: Efficient and accurate electronic structure calculations.
 https://doi.org/10.1063/5.0007045

 Goerigk, Lars; Hansen, Andreas; Bauer, Christoph; Ehrlich, Stephan;
 Najibi, Asim; Grimme, Stefan. , 19 (48), (2017). 
 A look at the density functional theory zoo with the advanced GMTKN55 database
 for general main group thermochemistry, kinetics and noncovalent interactions.
 https://doi.org/10.1039/C7CP04913G

 Schuett, Ole; Messmer, Peter; Hutter, Juerg; VandeVondele, Joost. 
 Electronic Structure Calculations on Graphics Processing Units, John
 Wiley & Sons, Ltd, 173-190 (2016). 
 GPU-Accelerated Sparse Matrix-Matrix Multiplication for
 Linear Scaling Density Functional Theory.
 https://doi.org/10.1002/9781118670712.ch8

 Heinecke, A; Henry, G; Hutchinson, M; Pabst, H. 
 Proceedings of Intl. Supercomputing Conference, 981-991 (2016). 
 LIBXSMM: Accelerating Small Matrix Multiplications
 by Runtime Code Generation.
 https://doi.org/10.1109/SC.2016.83

 Borstnik, U; VandeVondele, J; Weber, V; Hutter, J. 
 PARALLEL COMPUTING, 40 (5-6), 47-58 (2014). 
 Sparse matrix multiplication: The distributed block-compressed sparse
 row library.
 https://doi.org/10.1016/j.parco.2014.03.012

 Hutter, J; Iannuzzi, M; Schiffmann, F; VandeVondele, J. 
 WIREs Comput Mol Sci., 4 (1), 15-25 (2014). 
 CP2K: atomistic simulations of condensed matter systems.
 https://doi.org/10.1002/wcms.1159

 Grimme, S; Ehrlich, S; Goerigk, L. 
 JOURNAL OF COMPUTATIONAL CHEMISTRY, 32, 1456 (2011). 
 Effect of the damping function in dispersion corrected density functional theory.
 https://doi.org/10.1002/jcc.21759

 Grimme, S; Antony, J; Ehrlich, S; Krieg, H. 
 JOURNAL OF CHEMICAL PHYSICS, 132 (15), 154104 (2010). 
 A consistent and accurate ab initio parametrization of density
 functional dispersion correction (DFT-D) for the 94 elements H-Pu.
 https://doi.org/10.1063/1.3382344

 Guidon, M; Hutter, J; VandeVondele, J. 
 JOURNAL OF CHEMICAL THEORY AND COMPUTATION, 5 (11), 3010-3021 (2009). 
 Robust Periodic Hartree-Fock Exchange for Large-Scale Simulations Using
 Gaussian Basis Sets.
 https://doi.org/10.1021/ct900494g

 Guidon, M; Schiffmann, F; Hutter, J; VandeVondele, J. 
 JOURNAL OF CHEMICAL PHYSICS, 128 (21), 214104 (2008). 
 Ab initio molecular dynamics using hybrid density functionals.
 https://doi.org/10.1063/1.2931945

 VandeVondele, J; Hutter, J. 
 JOURNAL OF CHEMICAL PHYSICS, 127 (11), 114105 (2007). 
 Gaussian basis sets for accurate calculations on molecular systems in
 gas and condensed phases.
 https://doi.org/10.1063/1.2770708

 Frigo, M; Johnson, SG. 
 PROCEEDINGS OF THE IEEE, 93 (2), 216-231 (2005). 
 The design and implementation of FFTW3.
 https://doi.org/10.1109/JPROC.2004.840301

 Iannuzzi, M; Chassaing, T; Wallman, T; Hutter, J. 
 CHIMIA, 59 (7-8), 499-503 (2005). 
 Ground and excited state density functional calculations with the
 Gaussian and augmented-plane-wave method.
 https://doi.org/10.2533/000942905777676164

 VandeVondele, J; Hutter, J. 
 JOURNAL OF CHEMICAL PHYSICS, 118 (10), 4365-4369 (2003). 
 An efficient orbital transformation method for electronic structure
 calculations.
 https://doi.org/10.1063/1.1543154

 Martin,Richard L.. 
 The Journal of Chemical Physics, 118 (11), 4775-4777 (2003). 
 Natural transition orbitals.
 https://doi.org/10.1063/1.1558471

 Lippert, G; Hutter, J; Parrinello, M. 
 THEORETICAL CHEMISTRY ACCOUNTS, 103 (2), 124-140 (1999). 
 The Gaussian and augmented-plane-wave density functional method for ab
 initio molecular dynamics simulations.
 https://doi.org/10.1007/s002140050523

 Krack, M; Parrinello, M. 
 PHYSICAL CHEMISTRY CHEMICAL PHYSICS, 2 (10), 2105-2112 (2000). 
 All-electron ab-initio molecular dynamics.
 https://doi.org/10.1039/b001167n

 Martyna, GJ; Tuckerman, ME. 
 JOURNAL OF CHEMICAL PHYSICS, 110 (6), 2810-2821 (1999). 
 A reciprocal space based method for treating long range interactions in
 ab initio and force-field-based calculations in clusters.
 https://doi.org/10.1063/1.477923

 BECKE, AD. PHYSICAL REVIEW A, 38 (6), 3098-3100 (1988). 
 DENSITY-FUNCTIONAL EXCHANGE-ENERGY APPROXIMATION WITH CORRECT
 ASYMPTOTIC-BEHAVIOR.
 https://doi.org/10.1103/PhysRevA.38.3098

 LEE, CT; YANG, WT; PARR, RG. 
 PHYSICAL REVIEW B, 37 (2), 785-789 (1988). 
 DEVELOPMENT OF THE COLLE-SALVETTI CORRELATION-ENERGY FORMULA INTO A
 FUNCTIONAL OF THE ELECTRON-DENSITY.
 https://doi.org/10.1103/PhysRevB.37.785

 VOSKO, SH; WILK, L; NUSAIR, M. 
 CANADIAN JOURNAL OF PHYSICS, 58 (8), 1200-1211 (1980). 
 ACCURATE SPIN-DEPENDENT ELECTRON LIQUID CORRELATION ENERGIES FOR LOCAL
 SPIN-DENSITY CALCULATIONS - A CRITICAL ANALYSIS.
 https://doi.org/10.1139/p80-159


 -------------------------------------------------------------------------------
 -                                                                             -
 -                                T I M I N G                                  -
 -                                                                             -
 -------------------------------------------------------------------------------
 SUBROUTINE                       CALLS  ASD         SELF TIME        TOTAL TIME
                                MAXIMUM       AVERAGE  MAXIMUM  AVERAGE  MAXIMUM
 CP2K                                 1  1.0    0.008    0.016  180.503  180.504
 qs_forces                            1  2.0    0.001    0.001  179.947  179.948
 qs_energies                          1  3.0    0.000    0.000  118.059  118.059
 qs_energies_properties               1  4.0    0.000    0.000  103.811  103.811
 tddfpt                               1  5.0    0.000    0.000  103.811  103.811
 tddfpt_energies                      1  6.0    0.000    0.000   78.396   78.396
 tddfpt_davidson_solver               2  7.0    0.001    0.002   77.910   77.910
 tddfpt_compute_Aop_evects           11  8.0    0.000    0.000   77.698   77.699
 fft_wrap_pw1pw2                   3628 12.2    0.023    0.024   50.521   53.096
 excited_state_energy                 2  3.5    0.001    0.001   52.888   52.889
 fft_wrap_pw1pw2_200               2535 13.5    1.839    1.882   48.972   51.396
 fhxc_kernel                         11  9.0    0.003    0.003   49.550   49.551
 fft3d_ps                          3628 14.2   22.967   25.813   37.964   41.847
 integrate_four_center              258 10.6    0.041    0.042   39.544   39.551
 response_equation                    1  4.0    0.000    0.000   38.259   38.259
 linres_solver                        1  5.0    0.001    0.003   38.237   38.237
 apply_op                            40  6.0    0.001    0.001   38.193   38.193
 integrate_four_center_main         258 11.6    0.016    0.021   35.950   37.330
 integrate_four_center_bin        24510 12.6   35.933   37.316   35.933   37.316
 derivatives_four_center              4  8.5    0.004    0.006   34.620   35.922
 derivatives_four_center_main         4  9.5    0.000    0.000   34.566   35.868
 derivatives_four_center_bin        416 10.5   32.214   34.379   32.214   34.379
 xc_pw_derive                      1326 12.4    0.008    0.009   28.735   29.937
 tddfpt_apply_hfx                    11  9.0    0.001    0.001   28.084   28.084
 tddft_hfx_matrix                   198 10.0    0.004    0.004   27.802   27.802
 tddfpt_forces_main                   1  6.0    0.000    0.000   25.363   25.363
 tddfpt_forces                        1  7.0    0.000    0.000   24.460   24.460
 tddfpt_force_direct                  1  8.0    0.000    0.000   24.053   24.053
 tddfpt_kernel_force                  1  9.0    0.000    0.000   24.045   24.045
 fhxc_force                           1 10.0    0.001    0.001   24.045   24.045
 apply_op_2_dft                      39  7.0    0.002    0.002   22.667   22.735
 rebuild_ks_matrix                   17  6.8    0.000    0.000   21.683   21.683
 qs_ks_build_kohn_sham_matrix        17  7.8    0.002    0.002   21.683   21.683
 prepare_gapw_den                   206  8.8    0.004    0.004   19.947   20.110
 xc_pw_divergence                   200 12.3    0.004    0.004   17.186   18.168
 tddfpt_apply_xc_analytic            99 10.0    0.656    0.724   16.733   16.939
 calculate_rho_elec                 200  9.6    0.153    0.161   14.917   14.922
 qs_rho_update_rho_low              195  8.6    0.002    0.002   14.888   14.889
 response_force                       1  4.0    0.004    0.005   14.628   14.628
 scf_env_do_scf                       1  4.0    0.000    0.000   14.104   14.104
 mp_alltoall_z22v                  3628 16.2    9.420   14.028    9.420   14.028
 hfx_ks_matrix                       17  8.8    0.000    0.001   13.863   13.864
 xc_calc_2nd_deriv_analytical       732 11.1    1.125    1.270   13.096   13.269
 qs_fxc_analytic                     40  8.0    0.001    0.002   13.033   13.131
 qs_ks_update_qs_env                 18  6.0    0.000    0.000   12.722   12.722
 xc_rho_set_and_dset_create         102 12.2    1.011    1.132   10.841   12.711
 density_rs2pw                      200 10.6    0.006    0.006   11.802   12.267
 yz_to_x                           1849 15.3    2.490    2.755    8.149   11.811
 qs_vxc_create                       60 11.8    0.001    0.001   11.652   11.656
 xc_vxc_pw_create                    60 12.8    0.103    0.110   11.651   11.656
 integrate_v_rspace                 164  9.4    0.003    0.003   10.817   11.273
 calculate_rho0_atom                606  9.8   10.237   10.871   10.237   10.871
 scf_env_do_scf_inner_loop           16  5.0    0.000    0.001   10.295   10.295
 tddfpt_apply_coulomb                99 10.0    0.001    0.001    8.364    9.341
 xc_calc_2nd_deriv                   41  8.9    0.258    0.298    8.321    9.286
 qs_ks_update_qs_env_forces           1  3.0    0.000    0.000    8.963    8.963
 x_to_yz                           1779 15.0    3.045    3.454    6.806    8.865
 qs_fgxc_gdiff                        1 11.0    0.000    0.000    8.317    8.318
 qs_fxc_fdiff                         7 12.0    0.000    0.000    8.297    8.298
 potential_pw2rs                    164 10.4    0.010    0.010    7.587    8.044
 put_rho0_on_grid                   202  9.8    0.178    0.208    6.406    6.605
 pw_gather_p                       1849 14.3    5.549    6.182    5.549    6.182
 transfer_rs2pw                    1003 11.4    0.007    0.008    5.510    6.017
 xc_prep_2nd_deriv                   42  8.9    0.000    0.000    5.142    5.987
 apply_hfx                           39  7.0    0.000    0.001    5.640    5.646
 hfx_matrix                          39  8.0    0.001    0.001    5.638    5.643
 transfer_pw2rs                     817 11.3    0.004    0.004    5.347    5.367
 transfer_rs2pw_200                 403 12.2    2.296    2.377    4.473    5.016
 integrate_vhg0_rspace              160  9.9    0.934    1.018    4.989    4.996
 pw_poisson_solve                   161  9.9    0.002    0.002    3.765    4.726
 mp_sum_d                          2089  8.9    2.950    4.310    2.950    4.310
 transfer_pw2rs_200                 325 12.1    2.083    2.110    4.181    4.207
 xc_functional_eval                3080 12.0    0.003    0.005    2.292    4.126
 mp_waitany                       14560 13.2    3.272    3.859    3.272    3.859
 init_scf_loop                        1  5.0    0.000    0.000    3.809    3.809
 -------------------------------------------------------------------------------

 The number of warnings for this run is : 0
 
 -------------------------------------------------------------------------------
  **** **** ******  **  PROGRAM ENDED AT                 2025-01-06 21:50:48.227
 ***** ** ***  *** **   PROGRAM RAN ON                               nesh-srp148
 **    ****   ******    PROGRAM RAN BY                                  suphc356
 ***** **    ** ** **   PROGRAM PROCESS ID                               1693508
  **** **  *******  **  PROGRAM STOPPED IN /gxfs_work/cau/suphc356/NEWTONX_proje
                                           ct/Pyrazin_molecule/CP2K_GAPW_B3LYP_d
                                           ef2_TZVP/MOLDYN_BA_again/TRAJECTORIES
                                           /TRAJ112/TEMP
