 DBCSR| CPU Multiplication driver                                           XSMM (U)
 DBCSR| Multrec recursion limit                                              512 (U)
 DBCSR| Multiplication stack size                                           1000 (D)
 DBCSR| Maximum elements for images                                    UNLIMITED (U)
 DBCSR| Multiplicative factor virtual images                                   1 (U)
 DBCSR| Use multiplication densification                                       T (D)
 DBCSR| Multiplication size stacks                                             3 (U)
 DBCSR| Use memory pool for CPU allocation                                     F (U)
 DBCSR| Number of 3D layers                                               SINGLE (U)
 DBCSR| Use MPI memory allocation                                              F (U)
 DBCSR| Use RMA algorithm                                                      F (U)
 DBCSR| Use Communication thread                                               T (U)
 DBCSR| Communication thread load                                             87 (D)
 DBCSR| MPI: My process id                                                     0
 DBCSR| MPI: Number of processes                                              16
 DBCSR| OMP: Current number of threads                                         1
 DBCSR| OMP: Max number of threads                                             1
 DBCSR| Split modifier for TAS multiplication algorithm                  1.0E+00 (U)


  **** **** ******  **  PROGRAM STARTED AT               2025-01-06 09:44:27.574
 ***** ** ***  *** **   PROGRAM STARTED ON                           nesh-clk411
 **    ****   ******    PROGRAM STARTED BY                              suphc356
 ***** **    ** ** **   PROGRAM PROCESS ID                               1710609
  **** **  *******  **  PROGRAM STARTED IN /gxfs_work/cau/suphc356/NEWTONX_proje
                                           ct/Pyrazin_molecule/CP2K_GAPW_B3LYP_d
                                           ef2_TZVP/MOLDYN_BA_again/TRAJECTORIES
                                           /TRAJ63/TEMP

 CP2K| version string:                 CP2K version 2024.1 (Development Version)
 CP2K| source code revision number:                                  git:990486a
 CP2K| cp2kflags: omp libint fftw3 libxc libgrpp parallel mpi_f08 scalapack cosm
 CP2K|            a xsmm spglib mkl
 CP2K| is freely available from                            https://www.cp2k.org/
 CP2K| Program compiled at                          Mon Mar 11 08:48:45 CET 2024
 CP2K| Program compiled on                                           nesh-login2
 CP2K| Program compiled for                                                local
 CP2K| Data directory path                 /gxfs_work/cau/suphc356/cp2k_gcc/data
 CP2K| Input file name                                                  cp2k.inp

 GLOBAL| Force Environment number                                              1
 GLOBAL| Basis set file name                                     EMSL_BASIS_SETS
 GLOBAL| Potential file name                                      ALL_POTENTIALS
 GLOBAL| MM Potential file name                                     MM_POTENTIAL
 GLOBAL| Coordinate file name                                      __STD_INPUT__
 GLOBAL| Method name                                                        CP2K
 GLOBAL| Project name                                               testsuite_ad
 GLOBAL| Run type                                                   ENERGY_FORCE
 GLOBAL| FFT library                                                       FFTW3
 GLOBAL| Diagonalization library                                       ScaLAPACK
 GLOBAL| DGEMM library                                                      BLAS
 GLOBAL| Orthonormality check for eigenvectors                          DISABLED
 GLOBAL| Matrix multiplication library                                     COSMA
 GLOBAL| All-to-all communication in single precision                          F
 GLOBAL| FFTs using library dependent lengths                                  F
 GLOBAL| Grid backend                                                       AUTO
 GLOBAL| Global print level                                               MEDIUM
 GLOBAL| MPI I/O enabled                                                       T
 GLOBAL| Total number of message passing processes                            16
 GLOBAL| Number of threads for this process                                    1
 GLOBAL| This output is from process                                           0
 GLOBAL| Stack size for threads created by OpenMP (OMP_STACKSIZE)           256M
 GLOBAL| CPU model name                Intel(R) Xeon(R) Gold 6226R CPU @ 2.90GHz
 GLOBAL| CPUID                                                              1003
 GLOBAL| Compiled for CPUID                                                    0

 *** HINT in environment.F:920 :: The compiler target flags (generic) used ***
 *** to build this binary cannot exploit all extensions of this CPU model  ***
 *** (x86_avx512). Consider compiler target flags as part of FCFLAGS and   ***
 *** CFLAGS (ARCH file).                                                   ***


 MEMORY| system memory details [Kb]
 MEMORY|                        rank 0           min           max       average
 MEMORY| MemTotal            196683224     196683224     196683224     196683224
 MEMORY| MemFree             178719512     178719512     178719512     178719512
 MEMORY| Buffers                602264        602264        602264        602264
 MEMORY| Cached                1204328       1204328       1204328       1204328
 MEMORY| Slab                  1853848       1853848       1853848       1853848
 MEMORY| SReclaimable           274860        274860        274860        274860
 MEMORY| MemLikelyFree       180800964     180800964     180800964     180800964


 *** Fundamental physical constants (SI units) ***

 *** Literature: B. J. Mohr and B. N. Taylor,
 ***             CODATA recommended values of the fundamental physical
 ***             constants: 2006, Web Version 5.1
 ***             http://physics.nist.gov/constants

 Speed of light in vacuum [m/s]                             2.99792458000000E+08
 Magnetic constant or permeability of vacuum [N/A**2]       1.25663706143592E-06
 Electric constant or permittivity of vacuum [F/m]          8.85418781762039E-12
 Planck constant (h) [J*s]                                  6.62606896000000E-34
 Planck constant (h-bar) [J*s]                              1.05457162825177E-34
 Elementary charge [C]                                      1.60217648700000E-19
 Electron mass [kg]                                         9.10938215000000E-31
 Electron g factor [ ]                                     -2.00231930436220E+00
 Proton mass [kg]                                           1.67262163700000E-27
 Fine-structure constant                                    7.29735253760000E-03
 Rydberg constant [1/m]                                     1.09737315685270E+07
 Avogadro constant [1/mol]                                  6.02214179000000E+23
 Boltzmann constant [J/K]                                   1.38065040000000E-23
 Atomic mass unit [kg]                                      1.66053878200000E-27
 Bohr radius [m]                                            5.29177208590000E-11

 *** Conversion factors ***

 [u] -> [a.u.]                                              1.82288848426455E+03
 [Angstrom] -> [Bohr] = [a.u.]                              1.88972613288564E+00
 [a.u.] = [Bohr] -> [Angstrom]                              5.29177208590000E-01
 [a.u.] -> [s]                                              2.41888432650478E-17
 [a.u.] -> [fs]                                             2.41888432650478E-02
 [a.u.] -> [J]                                              4.35974393937059E-18
 [a.u.] -> [N]                                              8.23872205491840E-08
 [a.u.] -> [K]                                              3.15774647902944E+05
 [a.u.] -> [kJ/mol]                                         2.62549961709828E+03
 [a.u.] -> [kcal/mol]                                       6.27509468713739E+02
 [a.u.] -> [Pa]                                             2.94210107994716E+13
 [a.u.] -> [bar]                                            2.94210107994716E+08
 [a.u.] -> [atm]                                            2.90362800883016E+08
 [a.u.] -> [eV]                                             2.72113838565563E+01
 [a.u.] -> [Hz]                                             6.57968392072181E+15
 [a.u.] -> [1/cm] (wave numbers)                            2.19474631370540E+05
 [a.u./Bohr**2] -> [1/cm]                                   5.14048714338585E+03
 

 CELL_TOP| Volume [angstrom^3]:                                      2744.000000
 CELL_TOP| Vector a [angstrom    14.000     0.000     0.000   |a| =    14.000000
 CELL_TOP| Vector b [angstrom     0.000    14.000     0.000   |b| =    14.000000
 CELL_TOP| Vector c [angstrom     0.000     0.000    14.000   |c| =    14.000000
 CELL_TOP| Angle (b,c), alpha [degree]:                                90.000000
 CELL_TOP| Angle (a,c), beta  [degree]:                                90.000000
 CELL_TOP| Angle (a,b), gamma [degree]:                                90.000000
 CELL_TOP| Numerically orthorhombic:                                         YES
 CELL_TOP| Periodicity                                                      NONE

 CELL| Volume [angstrom^3]:                                          2744.000000
 CELL| Vector a [angstrom]:      14.000     0.000     0.000   |a| =    14.000000
 CELL| Vector b [angstrom]:       0.000    14.000     0.000   |b| =    14.000000
 CELL| Vector c [angstrom]:       0.000     0.000    14.000   |c| =    14.000000
 CELL| Angle (b,c), alpha [degree]:                                    90.000000
 CELL| Angle (a,c), beta  [degree]:                                    90.000000
 CELL| Angle (a,b), gamma [degree]:                                    90.000000
 CELL| Numerically orthorhombic:                                             YES
 CELL| Periodicity                                                          NONE

 CELL_REF| Volume [angstrom^3]:                                      2744.000000
 CELL_REF| Vector a [angstrom    14.000     0.000     0.000   |a| =    14.000000
 CELL_REF| Vector b [angstrom     0.000    14.000     0.000   |b| =    14.000000
 CELL_REF| Vector c [angstrom     0.000     0.000    14.000   |c| =    14.000000
 CELL_REF| Angle (b,c), alpha [degree]:                                90.000000
 CELL_REF| Angle (a,c), beta  [degree]:                                90.000000
 CELL_REF| Angle (a,b), gamma [degree]:                                90.000000
 CELL_REF| Numerically orthorhombic:                                         YES
 CELL_REF| Periodicity                                                      NONE

 *******************************************************************************
 *******************************************************************************
 **                                                                           **
 **     #####                         ##              ##                      **
 **    ##   ##            ##          ##              ##                      **
 **   ##     ##                       ##            ######                    **
 **   ##     ##  ##   ##  ##   #####  ##  ##   ####   ##    #####    #####    **
 **   ##     ##  ##   ##  ##  ##      ## ##   ##      ##   ##   ##  ##   ##   **
 **   ##  ## ##  ##   ##  ##  ##      ####     ###    ##   ######   ######    **
 **    ##  ###   ##   ##  ##  ##      ## ##      ##   ##   ##       ##        **
 **     #######   #####   ##   #####  ##  ##  ####    ##    #####   ##        **
 **           ##                                                    ##        **
 **                                                                           **
 **                                                ... make the atoms dance   **
 **                                                                           **
 **            Copyright (C) by CP2K developers group (2000-2024)             **
 **                      J. Chem. Phys. 152, 194103 (2020)                    **
 **                                                                           **
 *******************************************************************************

 DFT| Spin restricted Kohn-Sham (RKS) calculation                            RKS
 DFT| Multiplicity                                                             1
 DFT| Number of spin states                                                    1
 DFT| Charge                                                                   0
 DFT| Self-interaction correction (SIC)                                       NO
 DFT| Cutoffs: density                                              1.000000E-10
 DFT|          gradient                                             1.000000E-10
 DFT|          tau                                                  1.000000E-10
 DFT|          cutoff_smoothing_range                               0.000000E+00
 DFT| XC density smoothing                                                  NONE
 DFT| XC derivatives                                                          PW

 FUNCTIONAL| BECKE88:
 FUNCTIONAL| A. Becke, Phys. Rev. A 38, 3098 (1988) {LDA version}               
 FUNCTIONAL| LYP:
 FUNCTIONAL| C. Lee, W. Yang, R.G. Parr, Phys. Rev. B, 37, 785 (1988) {LDA versi
 FUNCTIONAL| on}                                                                
 FUNCTIONAL| VWN:
 FUNCTIONAL| S. H. Vosko, L. Wilk and M. Nusair, Can. J. Phys. 58, 1200 (1980) {
 FUNCTIONAL| LDA version}                                                       
 FUNCTIONAL| XALPHA:
 FUNCTIONAL| Dirac/Slater local exchange; parameter=  0.666 {LDA}               

 vdW POTENTIAL|                                                   Pair Potential
 vdW POTENTIAL|          DFT-D3 (Version 3.1)
 vdW POTENTIAL|          Potential Form: S. Grimme et al, JCP 132: 154104 (2010)
 vdW POTENTIAL|          Zero Damping
 vdW POTENTIAL|          Cutoff Radius [Bohr]:                             37.79
 vdW POTENTIAL|          s6 Scaling Factor:                               1.0000
 vdW POTENTIAL|          sr6 Scaling Factor:                              1.2610
 vdW POTENTIAL|          s8 Scaling Factor:                               1.7030
 vdW POTENTIAL|          Cutoff for CN calculation:                   0.1000E-05

 QS| Method:                                                                GAPW
 QS| Density plane wave grid type                        NON-SPHERICAL FULLSPACE
 QS| Number of grid levels:                                                    4
 QS| Density cutoff [a.u.]:                                                200.0
 QS| Multi grid cutoff [a.u.]: 1) grid level                               200.0
 QS|                           2) grid level                                66.7
 QS|                           3) grid level                                22.2
 QS|                           4) grid level                                 7.4
 QS| Grid level progression factor:                                          3.0
 QS| Relative density cutoff [a.u.]:                                        30.0
 QS| Interaction thresholds: eps_pgf_orb:                                1.0E-07
 QS|                         eps_filter_matrix:                          0.0E+00
 QS|                         eps_core_charge:                            1.0E-16
 QS|                         eps_rho_gspace:                             1.0E-14
 QS|                         eps_rho_rspace:                             1.0E-14
 QS|                         eps_gvg_rspace:                             1.0E-07
 QS|                         eps_ppl:                                    1.0E-02
 QS|                         eps_ppnl:                                   1.0E-09
 QS| GAPW|      One center basis extended with primitives (small:s)
 QS| GAPW|                   eps_fit:                                    1.0E-04
 QS| GAPW|                   eps_iso:                                    1.0E-12
 QS| GAPW|                   eps_svd:                                    1.0E-08
 QS| GAPW|                   eps_cpc:                                    1.0E-14
 QS| GAPW|   atom-r-grid: quadrature:                                     GC_LOG
 QS| GAPW|      atom-s-grid:  max l :                                          6
 QS| GAPW|      max_l_rho0 :                                                   4


 ATOMIC KIND INFORMATION

  1. Atomic kind: n                                     Number of atoms:       2

     Orbital Basis Set                                        Ahlrichs-def2-TZVP

       Number of orbital shell sets:                                          11
       Number of orbital shells:                                              11
       Number of primitive Cartesian functions:                               20
       Number of Cartesian basis functions:                                   36
       Number of spherical basis functions:                                   31
       Norm type:                                                              2

       Normalised Cartesian orbitals:

                        Set   Shell   Orbital            Exponent    Coefficient

                          1       1    1s            19730.800647       0.695604
                                                      2957.895874       1.298610
                                                       673.221336       2.219088
                                                       190.682495       3.463661
                                                        62.295442       4.696756
                                                        22.654161       4.952251

                          2       1    1s                8.979148       2.388068
                                                         3.686300       0.733788

                          3       1    1s                0.846601       0.629027

                          4       1    1s                0.336471       0.314863

                          5       1    1s                0.136477       0.160031

                          6       1    1px              49.200381       2.126481
                                                        11.346791       2.327937
                                                         3.427397       2.048573
                                                         1.178553       1.260732
                          6       1    1py              49.200381       2.126481
                                                        11.346791       2.327937
                                                         3.427397       2.048573
                                                         1.178553       1.260732
                          6       1    1pz              49.200381       2.126481
                                                        11.346791       2.327937
                                                         3.427397       2.048573
                                                         1.178553       1.260732

                          7       1    1px               0.416422       0.476823
                          7       1    1py               0.416422       0.476823
                          7       1    1pz               0.416422       0.476823

                          8       1    1px               0.142608       0.124917
                          8       1    1py               0.142608       0.124917
                          8       1    1pz               0.142608       0.124917

                          9       1    1dx2              1.654000       3.970513
                          9       1    1dxy              1.654000       6.877130
                          9       1    1dxz              1.654000       6.877130
                          9       1    1dy2              1.654000       3.970513
                          9       1    1dyz              1.654000       6.877130
                          9       1    1dz2              1.654000       3.970513

                         10       1    1dx2              0.469000       0.437484
                         10       1    1dxy              0.469000       0.757744
                         10       1    1dxz              0.469000       0.757744
                         10       1    1dy2              0.469000       0.437484
                         10       1    1dyz              0.469000       0.757744
                         10       1    1dz2              0.469000       0.437484

                         11       1    1fx3              1.093000       1.798249
                         11       1    1fx2y             1.093000       4.021007
                         11       1    1fx2z             1.093000       4.021007
                         11       1    1fxy2             1.093000       4.021007
                         11       1    1fxyz             1.093000       6.964588
                         11       1    1fxz2             1.093000       4.021007
                         11       1    1fy3              1.093000       1.798249
                         11       1    1fy2z             1.093000       4.021007
                         11       1    1fyz2             1.093000       4.021007
                         11       1    1fz3              1.093000       1.798249

       Atomic covalent radius [Angstrom]:                                  0.750

       Atomic van der Waals radius [Angstrom]:                             1.550

     The atoms of this atomic kind are PAW atoms (GAPW):
       Hard Gaussian function radius:                                      1.400
       Rho0 radius:                                                        1.400
       Maximum GTO radius used for PAW projector construction:            24.566

     GAPW Soft Basis Set                                 Ahlrichs-def2-TZVP_soft

       Number of orbital shell sets:                                          11
       Number of orbital shells:                                              11
       Number of primitive Cartesian functions:                               11
       Number of Cartesian basis functions:                                   36
       Number of spherical basis functions:                                   31
       Norm type:                                                              2

       Normalised Cartesian orbitals:

                        Set   Shell   Orbital            Exponent    Coefficient

                          1       1    1s         

                          2       1    1s                3.686300       0.733788

                          3       1    1s                0.846601       0.629027

                          4       1    1s                0.336471       0.314863

                          5       1    1s                0.136477       0.160031

                          6       1    1px               3.427397       2.048573
                                                         1.178553       1.260732
                          6       1    1py               3.427397       2.048573
                                                         1.178553       1.260732
                          6       1    1pz               3.427397       2.048573
                                                         1.178553       1.260732

                          7       1    1px               0.416422       0.476823
                          7       1    1py               0.416422       0.476823
                          7       1    1pz               0.416422       0.476823

                          8       1    1px               0.142608       0.124917
                          8       1    1py               0.142608       0.124917
                          8       1    1pz               0.142608       0.124917

                          9       1    1dx2              1.654000       3.970513
                          9       1    1dxy              1.654000       6.877130
                          9       1    1dxz              1.654000       6.877130
                          9       1    1dy2              1.654000       3.970513
                          9       1    1dyz              1.654000       6.877130
                          9       1    1dz2              1.654000       3.970513

                         10       1    1dx2              0.469000       0.437484
                         10       1    1dxy              0.469000       0.757744
                         10       1    1dxz              0.469000       0.757744
                         10       1    1dy2              0.469000       0.437484
                         10       1    1dyz              0.469000       0.757744
                         10       1    1dz2              0.469000       0.437484

                         11       1    1fx3              1.093000       1.798249
                         11       1    1fx2y             1.093000       4.021007
                         11       1    1fx2z             1.093000       4.021007
                         11       1    1fxy2             1.093000       4.021007
                         11       1    1fxyz             1.093000       6.964588
                         11       1    1fxz2             1.093000       4.021007
                         11       1    1fy3              1.093000       1.798249
                         11       1    1fy2z             1.093000       4.021007
                         11       1    1fyz2             1.093000       4.021007
                         11       1    1fz3              1.093000       1.798249

     AE Potential information for                                            ALL

       Description:                                       All-electron potential
                                          Krack, Parrinello, PCCP 2, 2105 (2000)

       Gaussian exponent of the core charge distribution:               5.979100
       Electronic configuration (s p d ...):                           4   3   0

  2. Atomic kind: c                                     Number of atoms:       4

     Orbital Basis Set                                        Ahlrichs-def2-TZVP

       Number of orbital shell sets:                                          11
       Number of orbital shells:                                              11
       Number of primitive Cartesian functions:                               20
       Number of Cartesian basis functions:                                   36
       Number of spherical basis functions:                                   31
       Norm type:                                                              2

       Normalised Cartesian orbitals:

                        Set   Shell   Orbital            Exponent    Coefficient

                          1       1    1s            13575.349682       0.543591
                                                      2035.233368       1.014554
                                                       463.225624       1.731573
                                                       131.200196       2.691038
                                                        42.853016       3.604455
                                                        15.584186       3.702556

                          2       1    1s                6.206714       1.838354
                                                         2.576490       0.544758

                          3       1    1s                0.576963       0.471815

                          4       1    1s                0.229728       0.236494

                          5       1    1s                0.095164       0.122114

                          6       1    1px              34.697232       1.359665
                                                         7.958262       1.451259
                                                         2.378083       1.270923
                                                         0.814332       0.802572
                          6       1    1py              34.697232       1.359665
                                                         7.958262       1.451259
                                                         2.378083       1.270923
                                                         0.814332       0.802572
                          6       1    1pz              34.697232       1.359665
                                                         7.958262       1.451259
                                                         2.378083       1.270923
                                                         0.814332       0.802572

                          7       1    1px               0.288875       0.301876
                          7       1    1py               0.288875       0.301876
                          7       1    1pz               0.288875       0.301876

                          8       1    1px               0.100568       0.080727
                          8       1    1py               0.100568       0.080727
                          8       1    1pz               0.100568       0.080727

                          9       1    1dx2              1.097000       1.935401
                          9       1    1dxy              1.097000       3.352214
                          9       1    1dxz              1.097000       3.352214
                          9       1    1dy2              1.097000       1.935401
                          9       1    1dyz              1.097000       3.352214
                          9       1    1dz2              1.097000       1.935401

                         10       1    1dx2              0.318000       0.221644
                         10       1    1dxy              0.318000       0.383899
                         10       1    1dxz              0.318000       0.383899
                         10       1    1dy2              0.318000       0.221644
                         10       1    1dyz              0.318000       0.383899
                         10       1    1dz2              0.318000       0.221644

                         11       1    1fx3              0.761000       0.796288
                         11       1    1fx2y             0.761000       1.780553
                         11       1    1fx2z             0.761000       1.780553
                         11       1    1fxy2             0.761000       1.780553
                         11       1    1fxyz             0.761000       3.084008
                         11       1    1fxz2             0.761000       1.780553
                         11       1    1fy3              0.761000       0.796288
                         11       1    1fy2z             0.761000       1.780553
                         11       1    1fyz2             0.761000       1.780553
                         11       1    1fz3              0.761000       0.796288

       Atomic covalent radius [Angstrom]:                                  0.770

       Atomic van der Waals radius [Angstrom]:                             1.700

     The atoms of this atomic kind are PAW atoms (GAPW):
       Hard Gaussian function radius:                                      1.520
       Rho0 radius:                                                        1.520
       Maximum GTO radius used for PAW projector construction:            24.566

     GAPW Soft Basis Set                                 Ahlrichs-def2-TZVP_soft

       Number of orbital shell sets:                                          11
       Number of orbital shells:                                              11
       Number of primitive Cartesian functions:                               11
       Number of Cartesian basis functions:                                   36
       Number of spherical basis functions:                                   31
       Norm type:                                                              2

       Normalised Cartesian orbitals:

                        Set   Shell   Orbital            Exponent    Coefficient

                          1       1    1s         

                          2       1    1s                2.576490       0.544758

                          3       1    1s                0.576963       0.471815

                          4       1    1s                0.229728       0.236494

                          5       1    1s                0.095164       0.122114

                          6       1    1px               2.378083       1.270923
                                                         0.814332       0.802572
                          6       1    1py               2.378083       1.270923
                                                         0.814332       0.802572
                          6       1    1pz               2.378083       1.270923
                                                         0.814332       0.802572

                          7       1    1px               0.288875       0.301876
                          7       1    1py               0.288875       0.301876
                          7       1    1pz               0.288875       0.301876

                          8       1    1px               0.100568       0.080727
                          8       1    1py               0.100568       0.080727
                          8       1    1pz               0.100568       0.080727

                          9       1    1dx2              1.097000       1.935401
                          9       1    1dxy              1.097000       3.352214
                          9       1    1dxz              1.097000       3.352214
                          9       1    1dy2              1.097000       1.935401
                          9       1    1dyz              1.097000       3.352214
                          9       1    1dz2              1.097000       1.935401

                         10       1    1dx2              0.318000       0.221644
                         10       1    1dxy              0.318000       0.383899
                         10       1    1dxz              0.318000       0.383899
                         10       1    1dy2              0.318000       0.221644
                         10       1    1dyz              0.318000       0.383899
                         10       1    1dz2              0.318000       0.221644

                         11       1    1fx3              0.761000       0.796288
                         11       1    1fx2y             0.761000       1.780553
                         11       1    1fx2z             0.761000       1.780553
                         11       1    1fxy2             0.761000       1.780553
                         11       1    1fxyz             0.761000       3.084008
                         11       1    1fxz2             0.761000       1.780553
                         11       1    1fy3              0.761000       0.796288
                         11       1    1fy2z             0.761000       1.780553
                         11       1    1fyz2             0.761000       1.780553
                         11       1    1fz3              0.761000       0.796288

     AE Potential information for                                            ALL

       Description:                                       All-electron potential
                                          Krack, Parrinello, PCCP 2, 2105 (2000)

       Gaussian exponent of the core charge distribution:               4.109048
       Electronic configuration (s p d ...):                           4   2   0

  3. Atomic kind: h                                     Number of atoms:       4

     Orbital Basis Set                                        Ahlrichs-def2-TZVP

       Number of orbital shell sets:                                           4
       Number of orbital shells:                                               4
       Number of primitive Cartesian functions:                                6
       Number of Cartesian basis functions:                                    6
       Number of spherical basis functions:                                    6
       Norm type:                                                              2

       Normalised Cartesian orbitals:

                        Set   Shell   Orbital            Exponent    Coefficient

                          1       1    1s               34.061341       0.255630
                                                         5.123575       0.461360
                                                         1.164663       0.681121

                          2       1    1s                0.327230       0.308355

                          3       1    1s                0.103072       0.129648

                          4       1    1px               0.800000       1.078456
                          4       1    1py               0.800000       1.078456
                          4       1    1pz               0.800000       1.078456

       Atomic covalent radius [Angstrom]:                                  0.320

       Atomic van der Waals radius [Angstrom]:                             1.090

     The atoms of this atomic kind are PAW atoms (GAPW):
       Hard Gaussian function radius:                                      1.000
       Rho0 radius:                                                        1.000
       Maximum GTO radius used for PAW projector construction:            24.566

     GAPW Soft Basis Set                                 Ahlrichs-def2-TZVP_soft

       Number of orbital shell sets:                                           4
       Number of orbital shells:                                               4
       Number of primitive Cartesian functions:                                5
       Number of Cartesian basis functions:                                    6
       Number of spherical basis functions:                                    6
       Norm type:                                                              2

       Normalised Cartesian orbitals:

                        Set   Shell   Orbital            Exponent    Coefficient

                          1       1    1s                5.123575       0.461360
                                                         1.164663       0.681121

                          2       1    1s                0.327230       0.308355

                          3       1    1s                0.103072       0.129648

                          4       1    1px               0.800000       1.078456
                          4       1    1py               0.800000       1.078456
                          4       1    1pz               0.800000       1.078456

     AE Potential information for                                            ALL

       Description:                                       All-electron potential
                                          Krack, Parrinello, PCCP 2, 2105 (2000)

       Gaussian exponent of the core charge distribution:              12.500000
       Electronic configuration (s p d ...):                           1   0   0


 MOLECULE KIND INFORMATION


 All atoms are their own molecule, skipping detailed information


 TOTAL NUMBERS AND MAXIMUM NUMBERS

  Total number of            - Atomic kinds:                                   3
                             - Atoms:                                         10
                             - Shell sets:                                    82
                             - Shells:                                        82
                             - Primitive Cartesian functions:                144
                             - Cartesian basis functions:                    240
                             - Spherical basis functions:                    210

  Maximum angular momentum of the orbital basis functions:                     3


 MODULE QUICKSTEP: ATOMIC COORDINATES IN ANGSTROM

   Atom Kind Element         X             Y             Z       Z(eff)     Mass
      1    1 n     7      7.291035      8.211834      7.438742   7.0000  14.0067
      2    1 n     7      7.399365      5.831924      6.360237   7.0000  14.0067
      3    2 c     6      7.117818      6.911965      8.270352   6.0000  12.0107
      4    2 c     6      7.180706      5.736850      7.574002   6.0000  12.0107
      5    2 c     6      7.088611      8.298701      6.169337   6.0000  12.0107
      6    2 c     6      7.134501      6.927777      5.620366   6.0000  12.0107
      7    3 h     1      7.469925      7.125485      9.346835   1.0000   1.0079
      8    3 h     1      7.342038      4.746040      8.063535   1.0000   1.0079
      9    3 h     1      6.860365      9.253960      5.573271   1.0000   1.0079
     10    3 h     1      6.530075      6.815862      4.653165   1.0000   1.0079



 SCF PARAMETERS         Density guess:                                   RESTART
                        --------------------------------------------------------
                        max_scf:                                              50
                        max_scf_history:                                       0
                        max_diis:                                              4
                        --------------------------------------------------------
                        eps_scf:                                        1.00E-08
                        eps_scf_history:                                0.00E+00
                        eps_diis:                                       1.00E-01
                        eps_eigval:                                     1.00E-05
                        --------------------------------------------------------
                        level_shift [a.u.]:                             0.000000
                        --------------------------------------------------------
                        Outer loop SCF in use 
                        No variables optimised in outer loop
                        eps_scf                                         1.00E-08
                        max_scf                                              900
                        No outer loop optimization
                        step_size                                       5.00E-01

 PW_GRID| Information for grid number                                          1
 PW_GRID| Grid distributed over                                    16 processors
 PW_GRID| Real space group dimensions                                    16    1
 PW_GRID| the grid is blocked:                                                NO
 PW_GRID| Cutoff [a.u.]                                                    400.0
 PW_GRID| spherical cutoff:                                                   NO
 PW_GRID|   Bounds   1           -120     119                Points:         240
 PW_GRID|   Bounds   2           -120     119                Points:         240
 PW_GRID|   Bounds   3           -120     119                Points:         240
 PW_GRID| Volume element (a.u.^3)  0.1340E-02     Volume (a.u.^3)     18517.4301
 PW_GRID| Grid span                                                    FULLSPACE
 PW_GRID|   Distribution                         Average         Max         Min
 PW_GRID|   G-Vectors                           864000.0      864000      864000
 PW_GRID|   G-Rays                                3600.0        3600        3600
 PW_GRID|   Real Space Points                   864000.0      864000      864000

 PW_GRID| Information for grid number                                          2
 PW_GRID| Number of the reference grid                                         1
 PW_GRID| Grid distributed over                                    16 processors
 PW_GRID| Real space group dimensions                                    16    1
 PW_GRID| the grid is blocked:                                                NO
 PW_GRID| Cutoff [a.u.]                                                    200.0
 PW_GRID| spherical cutoff:                                                   NO
 PW_GRID|   Bounds   1            -90      89                Points:         180
 PW_GRID|   Bounds   2            -90      89                Points:         180
 PW_GRID|   Bounds   3            -90      89                Points:         180
 PW_GRID| Volume element (a.u.^3)  0.3175E-02     Volume (a.u.^3)     18517.4301
 PW_GRID| Grid span                                                    FULLSPACE
 PW_GRID|   Distribution                         Average         Max         Min
 PW_GRID|   G-Vectors                           364500.0      364680      364320
 PW_GRID|   G-Rays                                2025.0        2026        2024
 PW_GRID|   Real Space Points                   364500.0      388800      356400

 PW_GRID| Information for grid number                                          3
 PW_GRID| Number of the reference grid                                         2
 PW_GRID| Grid distributed over                                    16 processors
 PW_GRID| Real space group dimensions                                    16    1
 PW_GRID| the grid is blocked:                                                NO
 PW_GRID| Cutoff [a.u.]                                                     66.7
 PW_GRID| spherical cutoff:                                                   NO
 PW_GRID|   Bounds   1            -50      49                Points:         100
 PW_GRID|   Bounds   2            -50      49                Points:         100
 PW_GRID|   Bounds   3            -50      49                Points:         100
 PW_GRID| Volume element (a.u.^3)  0.1852E-01     Volume (a.u.^3)     18517.4301
 PW_GRID| Grid span                                                    FULLSPACE
 PW_GRID|   Distribution                         Average         Max         Min
 PW_GRID|   G-Vectors                            62500.0       62600       62400
 PW_GRID|   G-Rays                                 625.0         626         624
 PW_GRID|   Real Space Points                    62500.0       70000       60000

 PW_GRID| Information for grid number                                          4
 PW_GRID| Number of the reference grid                                         2
 PW_GRID| Grid distributed over                                    16 processors
 PW_GRID| Real space group dimensions                                    16    1
 PW_GRID| the grid is blocked:                                                NO
 PW_GRID| Cutoff [a.u.]                                                     22.2
 PW_GRID| spherical cutoff:                                                   NO
 PW_GRID|   Bounds   1            -30      29                Points:          60
 PW_GRID|   Bounds   2            -30      29                Points:          60
 PW_GRID|   Bounds   3            -30      29                Points:          60
 PW_GRID| Volume element (a.u.^3)  0.8573E-01     Volume (a.u.^3)     18517.4301
 PW_GRID| Grid span                                                    FULLSPACE
 PW_GRID|   Distribution                         Average         Max         Min
 PW_GRID|   G-Vectors                            13500.0       13560       13440
 PW_GRID|   G-Rays                                 225.0         226         224
 PW_GRID|   Real Space Points                    13500.0       14400       10800

 PW_GRID| Information for grid number                                          5
 PW_GRID| Number of the reference grid                                         2
 PW_GRID| Grid distributed over                                    16 processors
 PW_GRID| Real space group dimensions                                    16    1
 PW_GRID| the grid is blocked:                                                NO
 PW_GRID| Cutoff [a.u.]                                                      7.4
 PW_GRID| spherical cutoff:                                                   NO
 PW_GRID|   Bounds   1            -18      17                Points:          36
 PW_GRID|   Bounds   2            -18      17                Points:          36
 PW_GRID|   Bounds   3            -18      17                Points:          36
 PW_GRID| Volume element (a.u.^3)  0.3969         Volume (a.u.^3)     18517.4301
 PW_GRID| Grid span                                                    FULLSPACE
 PW_GRID|   Distribution                         Average         Max         Min
 PW_GRID|   G-Vectors                             2916.0        2952        2880
 PW_GRID|   G-Rays                                  81.0          82          80
 PW_GRID|   Real Space Points                     2916.0        3888        2592

 POISSON| Solver                                          Martyna-Tuckerman (MT)
 POISSON| MT| Alpha                                                        7.000
 POISSON| MT| Relative cutoff                                                2.0
 POISSON| Periodicity                                                       NONE

 RS_GRID| Information for grid number                                          2
 RS_GRID|   Bounds   1            -90      89                Points:         180
 RS_GRID|   Bounds   2            -90      89                Points:         180
 RS_GRID|   Bounds   3            -90      89                Points:         180
 RS_GRID| Real space distribution over                                  4 groups
 RS_GRID| Real space distribution along direction                              2
 RS_GRID| Border size                                                         31
 RS_GRID| Real space distribution over                                  4 groups
 RS_GRID| Real space distribution along direction                              3
 RS_GRID| Border size                                                         31
 RS_GRID|   Distribution                         Average         Max         Min
 RS_GRID|   Planes                                 107.0         107         107
 RS_GRID|   Distribution                         Average         Max         Min
 RS_GRID|   Planes                                 107.0         107         107

 RS_GRID| Information for grid number                                          3
 RS_GRID|   Bounds   1            -50      49                Points:         100
 RS_GRID|   Bounds   2            -50      49                Points:         100
 RS_GRID|   Bounds   3            -50      49                Points:         100
 RS_GRID| Real space fully replicated
 RS_GRID| Group size                                                           1

 RS_GRID| Information for grid number                                          4
 RS_GRID|   Bounds   1            -30      29                Points:          60
 RS_GRID|   Bounds   2            -30      29                Points:          60
 RS_GRID|   Bounds   3            -30      29                Points:          60
 RS_GRID| Real space fully replicated
 RS_GRID| Group size                                                           1

 RS_GRID| Information for grid number                                          5
 RS_GRID|   Bounds   1            -18      17                Points:          36
 RS_GRID|   Bounds   2            -18      17                Points:          36
 RS_GRID|   Bounds   3            -18      17                Points:          36
 RS_GRID| Real space fully replicated
 RS_GRID| Group size                                                           1

  HFX_INFO| Replica ID:                                                        1
  HFX_INFO| FRACTION:                                               0.2000000000
  HFX_INFO| Interaction Potential:                                       COULOMB
  HFX_INFO| EPS_SCHWARZ:                                                 1.0E-10
  HFX_INFO| EPS_SCHWARZ_FORCES                                           1.0E-08
  HFX_INFO| EPS_STORAGE_SCALING:                                         1.0E+00
  HFX_INFO| NBINS:                                                            64
  HFX_INFO| BLOCK_SIZE:                                                        1
  HFX_INFO| Number of periodic shells considered:                           NONE
  HFX_INFO| Number of periodic cells considered:                            NONE


 Number of electrons:                                                         42
 Number of occupied orbitals:                                                 21
 Number of molecular orbitals:                                                21

 Number of orbital functions:                                                210
 Number of independent orbital functions:                                    210

 Extrapolation method: initial_guess


 SCF WAVEFUNCTION OPTIMIZATION

  ----------------------------------- OT ---------------------------------------
  Minimizer      : DIIS                : direct inversion
                                         in the iterative subspace
                                         using   7 DIIS vectors
                                         safer DIIS on
  Preconditioner : FULL_ALL            : diagonalization, state selective
  Precond_solver : DEFAULT
  stepsize       :    0.15000000                  energy_gap     :    0.08000000
  eps_taylor     :   0.10000E-15                  max_taylor     :             4
  ----------------------------------- OT ---------------------------------------

  Step     Update method      Time    Convergence         Total energy    Change
  ------------------------------------------------------------------------------

  HFX_MEM_INFO| Est. max. program size before HFX [MiB]:                     642
  HFX_MEM_INFO| Number of cart. primitive ERI's calculated:           1709968066
  HFX_MEM_INFO| Number of sph. ERI's calculated:                       315370003
  HFX_MEM_INFO| Number of sph. ERI's stored in-core:                   315370003
  HFX_MEM_INFO| Number of sph. ERI's stored on disk:                           0
  HFX_MEM_INFO| Number of sph. ERI's calculated on the fly:                    0
  HFX_MEM_INFO| Total memory consumption ERI's RAM [MiB]:                    933
  HFX_MEM_INFO| Whereof max-vals [MiB]:                                        5
  HFX_MEM_INFO| Total compression factor ERI's RAM:                         2.58
  HFX_MEM_INFO| Total memory consumption ERI's disk [MiB]:                     0
  HFX_MEM_INFO| Total compression factor ERI's disk:                        0.00
  HFX_MEM_INFO| Size of density/Fock matrix [MiB]:                             0
  HFX_MEM_INFO| Size of buffers [MiB]:                                         0
  HFX_MEM_INFO| Est. max. program size after HFX  [MiB]:                     699

     1 OT DIIS     0.15E+00    5.7     0.01552563      -264.0125487312 -2.64E+02
     2 OT DIIS     0.15E+00    1.0     0.00724991      -264.1231251757 -1.11E-01
     3 OT DIIS     0.15E+00    1.0     0.00528550      -264.1458706991 -2.27E-02
     4 OT DIIS     0.15E+00    1.0     0.00090651      -264.1513169763 -5.45E-03
     5 OT DIIS     0.15E+00    1.0     0.00031480      -264.1514947127 -1.78E-04
     6 OT DIIS     0.15E+00    1.0     0.00015897      -264.1515235808 -2.89E-05
     7 OT DIIS     0.15E+00    1.0     0.00005607      -264.1515301739 -6.59E-06
     8 OT DIIS     0.15E+00    1.0     0.00001403      -264.1515312598 -1.09E-06
     9 OT DIIS     0.15E+00    1.0     0.00000537      -264.1515313389 -7.91E-08
    10 OT DIIS     0.15E+00    1.0     0.00000194      -264.1515313508 -1.20E-08
    11 OT DIIS     0.15E+00    1.0     0.00000078      -264.1515313522 -1.39E-09
    12 OT DIIS     0.15E+00    1.0     0.00000032      -264.1515313525 -2.58E-10
    13 OT DIIS     0.15E+00    1.0     0.00000015      -264.1515313525 -3.86E-11
    14 OT DIIS     0.15E+00    1.0     0.00000008      -264.1515313525  2.27E-12
    15 OT DIIS     0.15E+00    1.0     0.00000004      -264.1515313525  3.81E-12
    16 OT DIIS     0.15E+00    1.0     0.00000001      -264.1515313525  4.43E-12
    17 OT DIIS     0.15E+00    1.0     7.7504E-09      -264.1515313525 -3.24E-12

  *** SCF run converged in    17 steps ***


  Electronic density on regular grids:        -30.6498678859       11.3501321141
  Core density on regular grids:               42.0000000000       -0.0000000000
  Hard and soft densities (Lebedev):          -94.5338443183      -83.1837122024
  Total Rho_soft + Rho1_hard - Rho1_soft      -42.0000000018
  Total charge density (r-space):              -0.0000000018
  Total Rho_soft + Rho0_soft (g-space):        -0.0000000274

  Overlap energy of the core charge distribution:               0.00000955173622
  Self energy of the core charge distribution:               -217.69203579805162
  Core Hamiltonian energy:                                    -42.06588855821741
  Hartree energy:                                             109.93300317465992
  Exchange-correlation energy:                                -11.14944600373644
  Hartree-Fock Exchange energy:                                -7.03767843649575
  Dispersion energy:                                           -0.00388064101392

  GAPW| Exc from hard and soft atomic rho1:                   -18.55039390073097
  GAPW| local Eh = 1 center integrals:                        -77.58522074063812

  Total energy:                                              -264.15153135248812

  outer SCF iter =    1 RMS gradient =   0.78E-08 energy =       -264.1515313525
  outer SCF loop converged in   1 iterations or   17 steps


 !-----------------------------------------------------------------------------!
                     Mulliken Population Analysis

 #  Atom  Element  Kind  Atomic population                           Net charge
       1     n        1          7.206630                             -0.206630
       2     n        1          7.151015                             -0.151015
       3     c        2          6.061815                             -0.061815
       4     c        2          6.033850                             -0.033850
       5     c        2          6.053209                             -0.053209
       6     c        2          6.008814                             -0.008814
       7     h        3          0.854533                              0.145467
       8     h        3          0.882713                              0.117287
       9     h        3          0.861673                              0.138327
      10     h        3          0.885748                              0.114252
 # Total charge                             42.000000                  0.000000

 !-----------------------------------------------------------------------------!

 !-----------------------------------------------------------------------------!
                           Hirshfeld Charges

  #Atom  Element  Kind  Ref Charge     Population                    Net charge
      1       n      1       7.000          7.329                        -0.329
      2       n      1       7.000          7.275                        -0.275
      3       c      2       6.000          6.363                        -0.363
      4       c      2       6.000          6.318                        -0.318
      5       c      2       6.000          6.340                        -0.340
      6       c      2       6.000          6.339                        -0.339
      7       h      3       1.000          0.498                         0.502
      8       h      3       1.000          0.513                         0.487
      9       h      3       1.000          0.500                         0.500
     10       h      3       1.000          0.512                         0.488

  Total Charge                                                            0.012
 !-----------------------------------------------------------------------------!

 *******************************************************************************
 **                                                                           **
 **         ######## #######   #######   ######## #######  ########           **
 **            ##    ##     ## ##     ## ##       ##   ##     ##              **
 **            ##    ##     ## ##     ## ######   #######     ##              **
 **            ##    ##     ## ##     ## ##       ##          ##              **
 **            ##    #######   #######   ##       ##          ##              **
 **                                                                           **
 *******************************************************************************
 KERNEL|                                                                    FULL
 FUNCTIONAL| BECKE88:
 FUNCTIONAL| A. Becke, Phys. Rev. A 38, 3098 (1988) {LDA version}               
 FUNCTIONAL| LYP:
 FUNCTIONAL| C. Lee, W. Yang, R.G. Parr, Phys. Rev. B, 37, 785 (1988) {LDA versi
 FUNCTIONAL| on}                                                                
 FUNCTIONAL| VWN:
 FUNCTIONAL| S. H. Vosko, L. Wilk and M. Nusair, Can. J. Phys. 58, 1200 (1980) {
 FUNCTIONAL| LDA version}                                                       
 FUNCTIONAL| XALPHA:
 FUNCTIONAL| Dirac/Slater local exchange; parameter=  0.666 {LDA}               
 KERNEL|                                                          Exact Exchange
 KERNEL| Spin symmetry of excitations                                    Singlet
 TDDFPT| Number of states calculated                                           9
 TDDFPT| Number of Davidson iterations                                       100
 TDDFPT| Davidson iteration convergence                                0.367E-09
 TDDFPT| Max. number of Krylov space vectors                                5000
 TDDFPT| Molecular Orbitals:        Spin       AOs       Occ      Virt     Total
 TDDFPT|                               1       210        21       189       210
 
 -------------------------------------------------------------------------------
 -                            TDDFPT Initial Guess                             -
 -------------------------------------------------------------------------------
          State         Occupied      ->      Virtual          Excitation
          number         orbital              orbital          energy (eV)
 -------------------------------------------------------------------------------
             1               21                   22              3.68323
             2               20                   22              4.94331
             3               21                   23              5.02032
             4               19                   22              5.70841
             5               20                   23              6.28041
             6               18                   22              6.90806
             7               19                   23              7.04550
             8               21                   24              7.47022
             9               21                   25              7.56544

      Number of active states:                                       3969
 -------------------------------------------------------------------------------
 
 -------------------------------------------------------------------------------
 -                      TDDFPT WAVEFUNCTION OPTIMIZATION                       -
 -------------------------------------------------------------------------------

          Step            Time         Convergence           Conv. states
 -------------------------------------------------------------------------------

    State    Exc. energy (eV)      Convergence (eV)
        1       2.5900389            -1.0932E+00
        2       3.8890992            -1.0542E+00
        3       4.0424697            -9.7785E-01
        4       5.1260644            -5.8234E-01
        5       6.1088372            -1.7157E-01
        6       6.5692014            -3.3885E-01
        7       6.6558179            -3.8968E-01
        8       7.5111969             4.0974E-02
        9       9.2044365             1.6390E+00

             1            10.5          6.0232E-02                      0

    State    Exc. energy (eV)      Convergence (eV)
        1       2.5003387            -8.9700E-02
        2       3.8023679            -8.6731E-02
        3       3.9176540            -1.2482E-01
        4       5.0212497            -1.0481E-01
        5       5.5084513            -6.0039E-01
        6       6.0591039            -5.1010E-01
        7       6.4856764            -1.7014E-01
        8       6.6409657            -8.7023E-01
        9       7.7157953            -1.4886E+00

             2            10.5          5.4707E-02                      0

    State    Exc. energy (eV)      Convergence (eV)
        1       2.4972862            -3.0525E-03
        2       3.7941272            -8.2407E-03
        3       3.9132105            -4.4435E-03
        4       5.0154828            -5.7669E-03
        5       5.4553381            -5.3113E-02
        6       6.0272457            -3.1858E-02
        7       6.4564440            -2.9232E-02
        8       6.6185873            -2.2378E-02
        9       7.0356107            -6.8018E-01

             3            10.4          2.4996E-02                      0

    State    Exc. energy (eV)      Convergence (eV)
        1       2.4972214            -6.4831E-05
        2       3.7938268            -3.0030E-04
        3       3.9131420            -6.8526E-05
        4       5.0152741            -2.0865E-04
        5       5.4513011            -4.0370E-03
        6       6.0245126            -2.7331E-03
        7       6.4509129            -5.5311E-03
        8       6.6161565            -2.4307E-03
        9       6.9529661            -8.2645E-02

             4            10.4          3.0371E-03                      0

    State    Exc. energy (eV)      Convergence (eV)
        1       2.4972205            -9.3896E-07
        2       3.7938219            -4.9894E-06
        3       3.9131410            -9.6779E-07
        4       5.0152701            -4.0047E-06
        5       5.4511932            -1.0784E-04
        6       6.0244386            -7.4025E-05
        7       6.4503518            -5.6116E-04
        8       6.6158590            -2.9757E-04
        9       6.9035981            -4.9368E-02

             5            10.5          1.8142E-03                      0

    State    Exc. energy (eV)      Convergence (eV)
        1       2.4972205            -7.1920E-09
        2       3.7938218            -7.9768E-08
        3       3.9131410            -1.7118E-08
        4       5.0152701            -5.2051E-08
        5       5.4511910            -2.1824E-06
        6       6.0244357            -2.8928E-06
        7       6.4503293            -2.2497E-05
        8       6.6158363            -2.2674E-05
        9       6.8950799            -8.5182E-03

             6            10.4          3.1304E-04                      1

    State    Exc. energy (eV)      Convergence (eV)
        1       2.4972205            -4.9569E-11
        2       3.7938218            -6.9418E-10
        3       3.9131410            -3.3646E-10
        4       5.0152701            -1.0091E-09
        5       5.4511910            -3.8423E-08
        6       6.0244356            -6.9962E-08
        7       6.4503280            -1.3070E-06
        8       6.6158337            -2.5685E-06
        9       6.8928285            -2.2513E-03

             7            10.4          8.2736E-05                      4

    State    Exc. energy (eV)      Convergence (eV)
        1       2.4972205            -3.0475E-13
        2       3.7938218            -4.1887E-12
        3       3.9131410            -3.1721E-12
        4       5.0152701            -1.2284E-11
        5       5.4511910            -4.5383E-10
        6       6.0244356            -1.1408E-09
        7       6.4503279            -4.4397E-08
        8       6.6158336            -1.5127E-07
        9       6.8925434            -2.8514E-04

             8            10.4          1.0479E-05                      6

    State    Exc. energy (eV)      Convergence (eV)
        1       2.4972205             9.0632E-15
        2       3.7938218            -2.7945E-14
        3       3.9131410            -3.0211E-15
        4       5.0152701            -1.1027E-13
        5       5.4511910            -4.1426E-12
        6       6.0244356            -1.4810E-11
        7       6.4503279            -9.5231E-10
        8       6.6158336            -3.4926E-09
        9       6.8925331            -1.0281E-05

             9            10.4          3.7784E-07                      8

    State    Exc. energy (eV)      Convergence (eV)
        1       2.4972205            -2.6434E-15
        2       3.7938218            -2.2658E-15
        3       3.9131410            -9.0632E-15
        4       5.0152701            -1.0574E-14
        5       5.4511910            -3.1721E-14
        6       6.0244356            -1.1707E-13
        7       6.4503279            -1.5120E-11
        8       6.6158336            -5.6326E-11
        9       6.8925329            -2.1464E-07

            10            10.4          7.8879E-09                      8

    State    Exc. energy (eV)      Convergence (eV)
        1       2.4972205            -7.1750E-15
        2       3.7938218             0.0000E+00
        3       3.9131410             2.2658E-15
        4       5.0152701             9.8185E-15
        5       5.4511910             1.5105E-15
        6       6.0244356            -6.0421E-15
        7       6.4503279            -2.2658E-13
        8       6.6158336            -7.8019E-13
        9       6.8925329            -4.0312E-09

            11            10.4          1.4814E-10                      9
 ------------------------- Restart Davidson iterations -------------------------

    State    Exc. energy (eV)      Convergence (eV)
        1       2.4972205             1.0196E-14
        2       3.7938218             2.2658E-15
        3       3.9131410             3.7763E-15
        4       5.0152701            -7.5527E-16
        5       5.4511910            -2.2658E-15
        6       6.0244356            -1.5105E-15
        7       6.4503279            -6.4953E-14
        8       6.6158336            -1.4652E-13
        9       6.8925329             5.4379E-14

            12            10.4          5.3846E-15                      9
 
 -------------------------------------------------------------------------------
 -  TDDFPT run converged in 12 iteration(s) 
 -------------------------------------------------------------------------------

 R-TDDFPT states of multiplicity 1
 Transition dipoles calculated using length formulation

         State    Excitation        Transition dipole (a.u.)        Oscillator
         number   energy (eV)       x           y           z     strength (a.u.)
         ------------------------------------------------------------------------
 TDDFPT|      1       2.49722  -2.1813E-01 -5.0089E-02  2.6900E-01   7.49170E-03
 TDDFPT|      2       3.79382  -7.6091E-02 -2.2143E-01 -1.2109E-01   6.45862E-03
 TDDFPT|      3       3.91314   7.5157E-02  2.2965E-01 -2.7206E-01   1.26940E-02
 TDDFPT|      4       5.01527   4.4913E-02 -3.2787E-01  2.8851E-01   2.36842E-02
 TDDFPT|      5       5.45119  -5.2287E-02 -1.0868E-01  9.2263E-01   1.15627E-01
 TDDFPT|      6       6.02444  -1.2846E-01  5.7055E-02  4.1605E-01   2.84641E-02
 TDDFPT|      7       6.45033  -4.9159E-02 -1.8861E-01 -3.9014E-02   6.24413E-03
 TDDFPT|      8       6.61583   3.0227E-02 -2.8833E-01  7.4800E-01   1.04309E-01
 TDDFPT|      9       6.89253   3.5050E-03  3.4798E-02 -2.5707E-01   1.13659E-02

 TDDFPT : CheckSum  =  0.592550E+00
 
 -------------------------------------------------------------------------------
 -                            Excitation analysis                              -
 -------------------------------------------------------------------------------
        State             Occupied              Virtual             Excitation
        number             orbital              orbital             amplitude
 -------------------------------------------------------------------------------
             1   2.49722 eV
                                21                   22               0.963127
                                20                   22               0.221610
                                19                   22              -0.127068
             2   3.79382 eV
                                21                   23               0.928501
                                19                   22               0.241377
                                20                   22               0.188976
                                20                   23               0.161176
                                19                   23              -0.079904
                                18                   22               0.055997
             3   3.91314 eV
                                20                   22               0.794061
                                19                   22               0.503919
                                21                   23              -0.276352
                                21                   22              -0.107500
                                18                   22              -0.101872
                                20                   23              -0.056490
             4   5.01527 eV
                                20                   23              -0.835501
                                19                   22               0.341385
                                18                   22               0.308942
                                20                   22              -0.179567
                                19                   23              -0.153476
                                21                   24               0.078007
                                21                   22               0.075902
                                18                   23              -0.066583
                                21                   23               0.064313
                                21                   26              -0.053671
             5   5.45119 eV
                                19                   22               0.622448
                                19                   23               0.477694
                                20                   22              -0.388455
                                20                   23               0.286058
                                18                   23              -0.226552
                                21                   25              -0.150558
                                21                   22               0.148905
                                21                   23              -0.089844
                                17                   22               0.054122
             6   6.02444 eV
                                19                   23              -0.682264
                                18                   22              -0.572283
                                19                   22               0.278069
                                20                   22              -0.202057
                                21                   24               0.110542
                                20                   23               0.095466
                                21                   22               0.094543
                                18                   23               0.088352
                                17                   22               0.062279
                                21                   23              -0.061506
                                21                   27               0.055923
             7   6.45033 eV
                                21                   25               0.667174
                                21                   24               0.652390
                                21                   26              -0.252147
                                19                   23               0.164809
                                21                   28               0.112812
                                18                   22              -0.082513
             8   6.61583 eV
                                21                   25               0.679751
                                21                   24              -0.675133
                                18                   23              -0.170061
                                19                   22               0.109416
                                19                   23              -0.094392
                                20                   22              -0.078618
                                17                   22               0.066505
             9   6.89253 eV
                                21                   26              -0.925388
                                21                   24              -0.216945
                                21                   25              -0.176883
                                21                   29              -0.109817
                                19                   23               0.099383
                                21                   27               0.096666
                                18                   22              -0.073420
                                20                   25               0.068576
                                18                   23               0.068138
                                21                   28              -0.059601
                                16                   22               0.051763
 -------------------------------------------------------------------------------
 
 -------------------------------------------------------------------------------
 -                            Natural Orbital analysis                         -
 -------------------------------------------------------------------------------
   STATE NR.      1             2.49722 eV
     Particle-Hole state: 1   Spin:1     Eigenvalue: 0.99473   Sum Eigv: 0.99473
   STATE NR.      2             3.79382 eV
     Particle-Hole state: 1   Spin:1     Eigenvalue: 0.89793   Sum Eigv: 0.89793
     Particle-Hole state: 2   Spin:1     Eigenvalue: 0.09926   Sum Eigv: 0.99719
   STATE NR.      3             3.91314 eV
     Particle-Hole state: 1   Spin:1     Eigenvalue: 0.90972   Sum Eigv: 0.90972
     Particle-Hole state: 2   Spin:1     Eigenvalue: 0.08628   Sum Eigv: 0.99600
   STATE NR.      4             5.01527 eV
     Particle-Hole state: 1   Spin:1     Eigenvalue: 0.74605   Sum Eigv: 0.74605
     Particle-Hole state: 2   Spin:1     Eigenvalue: 0.23833   Sum Eigv: 0.98438
   STATE NR.      5             5.45119 eV
     Particle-Hole state: 1   Spin:1     Eigenvalue: 0.67358   Sum Eigv: 0.67358
     Particle-Hole state: 2   Spin:1     Eigenvalue: 0.27394   Sum Eigv: 0.94752
     Particle-Hole state: 3   Spin:1     Eigenvalue: 0.04078   Sum Eigv: 0.98830
   STATE NR.      6             6.02444 eV
     Particle-Hole state: 1   Spin:1     Eigenvalue: 0.74359   Sum Eigv: 0.74359
[...]
  total size                         1.142913E+09
  min size                           0.000000E+00
  max size                          31.744000E+03
  average size                       7.695764E+03
 MPI breakdown and total messages size (bytes):
             size <=      128               82707                        0
       128 < size <=     8192               11991                 82243224
      8192 < size <=    32768               53814               1060670016
     32768 < size <=   131072                   0                        0
    131072 < size <=  4194304                   0                        0
   4194304 < size <= 16777216                   0                        0
  16777216 < size                               0                        0
 -------------------------------------------------------------------------------
 -                                                                             -
 -                      DBCSR MESSAGE PASSING PERFORMANCE                      -
 -                                                                             -
 -------------------------------------------------------------------------------
 ROUTINE             CALLS      AVE VOLUME [Bytes]
 MP_Bcast               28                     12.
 MP_Allreduce         6609                      8.
 MP_Alltoall         26118                   2776.
 MP_ISend            24748                   3615.
 MP_IRecv            24748                   3333.
 -------------------------------------------------------------------------------

 -------------------------------------------------------------------------------
 -                                                                             -
 -                                DBM STATISTICS                               -
 -                                                                             -
 -------------------------------------------------------------------------------
    M  x    N  x    K                                          COUNT     PERCENT
 -------------------------------------------------------------------------------

 -------------------------------------------------------------------------------
 -                                                                             -
 -                                GRID STATISTICS                              -
 -                                                                             -
 -------------------------------------------------------------------------------
 LP    KERNEL             BACKEND                              COUNT     PERCENT
 1     collocate ortho    CPU                                 245490      15.52%
 1     integrate ortho    CPU                                 200558      12.68%
 2     collocate ortho    CPU                                 200130      12.65%
 0     collocate ortho    CPU                                 170730      10.79%
 2     integrate ortho    CPU                                 167550      10.59%
 3     collocate ortho    CPU                                 135030       8.54%
 0     integrate ortho    CPU                                 134958       8.53%
 3     integrate ortho    CPU                                 114362       7.23%
 4     collocate ortho    CPU                                  57960       3.66%
 4     integrate ortho    CPU                                  50960       3.22%
 4     collocate general  CPU                                  20352       1.29%
 5     collocate ortho    CPU                                  17640       1.12%
 5     integrate ortho    CPU                                  16152       1.02%
 4     integrate general  CPU                                  15936       1.01%
 2     collocate general  CPU                                  13568       0.86%
 2     integrate general  CPU                                  10624       0.67%
 6     collocate ortho    CPU                                   4410       0.28%
 6     integrate ortho    CPU                                   4158       0.26%
 5     integrate general  CPU                                    384       0.02%
 3     integrate general  CPU                                    256       0.02%
 7     integrate ortho    CPU                                    168       0.01%
 0     collocate general  CPU                                    160       0.01%
 0     integrate general  CPU                                    160       0.01%
 -------------------------------------------------------------------------------

 MEMORY| Estimated peak process memory [MiB]                                1287

 -------------------------------------------------------------------------------
 ----                             MULTIGRID INFO                            ----
 -------------------------------------------------------------------------------
 count for grid        1:         109545          cutoff [a.u.]          200.00
 count for grid        2:          22505          cutoff [a.u.]           66.67
 count for grid        3:           8627          cutoff [a.u.]           22.22
 count for grid        4:           1858          cutoff [a.u.]            7.41
 total gridlevel count  :         142535

 -------------------------------------------------------------------------------
 -                                                                             -
 -                         MESSAGE PASSING PERFORMANCE                         -
 -                                                                             -
 -------------------------------------------------------------------------------

 ROUTINE             CALLS      AVE VOLUME [Bytes]
 MP_Group                5
 MP_Bcast             4962                 947104.
 MP_Allreduce        15511                 138728.
 MP_Sync              1463
 MP_Alltoall          4212               15012602.
 MP_SendRecv          9510                 233950.
 MP_ISendRecv        16335                 124702.
 MP_Wait             34173
 MP_comm_split          50
 MP_ISend            15367                 822498.
 MP_IRecv            15536                 813226.
 -------------------------------------------------------------------------------


 -------------------------------------------------------------------------------
 -                                                                             -
 -                           R E F E R E N C E S                               -
 -                                                                             -
 -------------------------------------------------------------------------------
 
 CP2K version 2024.1 (Development Version), the CP2K developers group (2024).
 CP2K is freely available from https://www.cp2k.org/ .

 Kuehne,Thomas D.; Iannuzzi,Marcella; Del Ben,Mauro;
 Rybkin,Vladimir V.; Seewald,Patrick; Stein,Frederick; Laino,Teodoro;
 Khaliullin,Rustam Z.; Schuett,Ole; Schiffmann,Florian; Golze,Dorothea;
 Wilhelm,Jan; Chulkov,Sergey; Bani-Hashemian,Mohammad Hossein;
 Weber,Valery; Borstnik,Urban; Taillefumier,Mathieu;
 Jakobovits,Alice Shoshana; Lazzaro,Alfio; Pabst,Hans; Mueller,Tiziano;
 Schade,Robert; Guidon,Manuel; Andermatt,Samuel; Holmberg,Nico;
 Schenter,Gregory K.; Hehn,Anna; Bussy,Augustin; Belleflamme,Fabian;
 Tabacchi,Gloria; Gloess,Andreas; Lass,Michael; Bethune,Iain;
 Mundy,Christopher J.; Plessl,Christian; Watkins,Matt;
 VandeVondele,Joost; Krack,Matthias; Hutter,Juerg. 
 The Journal of Chemical Physics, 152 (19), (2020). 
 CP2K: An electronic structure and molecular dynamics software package -
 Quickstep: Efficient and accurate electronic structure calculations.
 https://doi.org/10.1063/5.0007045

 Goerigk, Lars; Hansen, Andreas; Bauer, Christoph; Ehrlich, Stephan;
 Najibi, Asim; Grimme, Stefan. , 19 (48), (2017). 
 A look at the density functional theory zoo with the advanced GMTKN55 database
 for general main group thermochemistry, kinetics and noncovalent interactions.
 https://doi.org/10.1039/C7CP04913G

 Schuett, Ole; Messmer, Peter; Hutter, Juerg; VandeVondele, Joost. 
 Electronic Structure Calculations on Graphics Processing Units, John
 Wiley & Sons, Ltd, 173-190 (2016). 
 GPU-Accelerated Sparse Matrix-Matrix Multiplication for
 Linear Scaling Density Functional Theory.
 https://doi.org/10.1002/9781118670712.ch8

 Heinecke, A; Henry, G; Hutchinson, M; Pabst, H. 
 Proceedings of Intl. Supercomputing Conference, 981-991 (2016). 
 LIBXSMM: Accelerating Small Matrix Multiplications
 by Runtime Code Generation.
 https://doi.org/10.1109/SC.2016.83

 Borstnik, U; VandeVondele, J; Weber, V; Hutter, J. 
 PARALLEL COMPUTING, 40 (5-6), 47-58 (2014). 
 Sparse matrix multiplication: The distributed block-compressed sparse
 row library.
 https://doi.org/10.1016/j.parco.2014.03.012

 Hutter, J; Iannuzzi, M; Schiffmann, F; VandeVondele, J. 
 WIREs Comput Mol Sci., 4 (1), 15-25 (2014). 
 CP2K: atomistic simulations of condensed matter systems.
 https://doi.org/10.1002/wcms.1159

 Grimme, S; Ehrlich, S; Goerigk, L. 
 JOURNAL OF COMPUTATIONAL CHEMISTRY, 32, 1456 (2011). 
 Effect of the damping function in dispersion corrected density functional theory.
 https://doi.org/10.1002/jcc.21759

 Grimme, S; Antony, J; Ehrlich, S; Krieg, H. 
 JOURNAL OF CHEMICAL PHYSICS, 132 (15), 154104 (2010). 
 A consistent and accurate ab initio parametrization of density
 functional dispersion correction (DFT-D) for the 94 elements H-Pu.
 https://doi.org/10.1063/1.3382344

 Guidon, M; Hutter, J; VandeVondele, J. 
 JOURNAL OF CHEMICAL THEORY AND COMPUTATION, 5 (11), 3010-3021 (2009). 
 Robust Periodic Hartree-Fock Exchange for Large-Scale Simulations Using
 Gaussian Basis Sets.
 https://doi.org/10.1021/ct900494g

 Guidon, M; Schiffmann, F; Hutter, J; VandeVondele, J. 
 JOURNAL OF CHEMICAL PHYSICS, 128 (21), 214104 (2008). 
 Ab initio molecular dynamics using hybrid density functionals.
 https://doi.org/10.1063/1.2931945

 VandeVondele, J; Hutter, J. 
 JOURNAL OF CHEMICAL PHYSICS, 127 (11), 114105 (2007). 
 Gaussian basis sets for accurate calculations on molecular systems in
 gas and condensed phases.
 https://doi.org/10.1063/1.2770708

 Frigo, M; Johnson, SG. 
 PROCEEDINGS OF THE IEEE, 93 (2), 216-231 (2005). 
 The design and implementation of FFTW3.
 https://doi.org/10.1109/JPROC.2004.840301

 Iannuzzi, M; Chassaing, T; Wallman, T; Hutter, J. 
 CHIMIA, 59 (7-8), 499-503 (2005). 
 Ground and excited state density functional calculations with the
 Gaussian and augmented-plane-wave method.
 https://doi.org/10.2533/000942905777676164

 VandeVondele, J; Hutter, J. 
 JOURNAL OF CHEMICAL PHYSICS, 118 (10), 4365-4369 (2003). 
 An efficient orbital transformation method for electronic structure
 calculations.
 https://doi.org/10.1063/1.1543154

 Martin,Richard L.. 
 The Journal of Chemical Physics, 118 (11), 4775-4777 (2003). 
 Natural transition orbitals.
 https://doi.org/10.1063/1.1558471

 Lippert, G; Hutter, J; Parrinello, M. 
 THEORETICAL CHEMISTRY ACCOUNTS, 103 (2), 124-140 (1999). 
 The Gaussian and augmented-plane-wave density functional method for ab
 initio molecular dynamics simulations.
 https://doi.org/10.1007/s002140050523

 Krack, M; Parrinello, M. 
 PHYSICAL CHEMISTRY CHEMICAL PHYSICS, 2 (10), 2105-2112 (2000). 
 All-electron ab-initio molecular dynamics.
 https://doi.org/10.1039/b001167n

 Martyna, GJ; Tuckerman, ME. 
 JOURNAL OF CHEMICAL PHYSICS, 110 (6), 2810-2821 (1999). 
 A reciprocal space based method for treating long range interactions in
 ab initio and force-field-based calculations in clusters.
 https://doi.org/10.1063/1.477923

 BECKE, AD. PHYSICAL REVIEW A, 38 (6), 3098-3100 (1988). 
 DENSITY-FUNCTIONAL EXCHANGE-ENERGY APPROXIMATION WITH CORRECT
 ASYMPTOTIC-BEHAVIOR.
 https://doi.org/10.1103/PhysRevA.38.3098

 LEE, CT; YANG, WT; PARR, RG. 
 PHYSICAL REVIEW B, 37 (2), 785-789 (1988). 
 DEVELOPMENT OF THE COLLE-SALVETTI CORRELATION-ENERGY FORMULA INTO A
 FUNCTIONAL OF THE ELECTRON-DENSITY.
 https://doi.org/10.1103/PhysRevB.37.785

 VOSKO, SH; WILK, L; NUSAIR, M. 
 CANADIAN JOURNAL OF PHYSICS, 58 (8), 1200-1211 (1980). 
 ACCURATE SPIN-DEPENDENT ELECTRON LIQUID CORRELATION ENERGIES FOR LOCAL
 SPIN-DENSITY CALCULATIONS - A CRITICAL ANALYSIS.
 https://doi.org/10.1139/p80-159


 -------------------------------------------------------------------------------
 -                                                                             -
 -                                T I M I N G                                  -
 -                                                                             -
 -------------------------------------------------------------------------------
 SUBROUTINE                       CALLS  ASD         SELF TIME        TOTAL TIME
                                MAXIMUM       AVERAGE  MAXIMUM  AVERAGE  MAXIMUM
 CP2K                                 1  1.0    0.012    0.017  275.629  275.629
 qs_forces                            1  2.0    0.000    0.001  274.635  274.635
 qs_energies                          1  3.0    0.000    0.000  183.587  183.587
 qs_energies_properties               1  4.0    0.000    0.000  161.273  161.274
 tddfpt                               1  5.0    0.000    0.000  161.273  161.274
 tddfpt_energies                      1  6.0    0.000    0.000  125.901  125.901
 tddfpt_davidson_solver               2  7.0    0.002    0.003  125.161  125.161
 tddfpt_compute_Aop_evects           12  8.0    0.000    0.000  124.767  124.767
 fhxc_kernel                         12  9.0    0.004    0.004   79.753   79.753
 excited_state_energy                 2  3.5    0.001    0.002   78.216   78.216
 fft_wrap_pw1pw2                   3808 12.2    0.041    0.048   73.740   78.199
 fft_wrap_pw1pw2_200               2655 13.5    2.268    2.384   71.400   75.409
 integrate_four_center              277 10.6    0.059    0.063   61.854   61.864
 fft3d_ps                          3808 14.2   30.192   33.058   54.193   59.112
 integrate_four_center_main         277 11.6    0.024    0.029   57.544   58.459
 integrate_four_center_bin        26315 12.6   57.520   58.431   57.520   58.431
 response_equation                    1  4.0    0.000    0.000   56.802   56.802
 linres_solver                        1  5.0    0.001    0.003   56.768   56.768
 apply_op                            40  6.0    0.001    0.001   56.699   56.699
 derivatives_four_center              4  8.5    0.004    0.005   49.202   50.559
 derivatives_four_center_main         4  9.5    0.000    0.001   49.113   50.469
 derivatives_four_center_bin        416 10.5   46.277   50.025   46.277   50.025
 tddfpt_apply_hfx                    12  9.0    0.002    0.002   44.897   44.897
 tddft_hfx_matrix                   216 10.0    0.005    0.005   44.443   44.443
 xc_pw_derive                      1386 12.4    0.011    0.012   41.490   43.407
 tddfpt_forces_main                   1  6.0    0.000    0.000   35.293   35.293
 prepare_gapw_den                   216  8.9    0.005    0.006   34.608   34.845
 tddfpt_forces                        1  7.0    0.000    0.000   33.980   33.980
 apply_op_2_dft                      39  7.0    0.002    0.003   33.317   33.379
 tddfpt_force_direct                  1  8.0    0.000    0.000   33.370   33.370
 tddfpt_kernel_force                  1  9.0    0.000    0.000   33.360   33.360
 fhxc_force                           1 10.0    0.001    0.001   33.360   33.360
 rebuild_ks_matrix                   18  6.8    0.000    0.000   32.677   32.678
 qs_ks_build_kohn_sham_matrix        18  7.8    0.002    0.003   32.677   32.678
 xc_pw_divergence                   210 12.3    0.005    0.006   25.558   27.428
 tddfpt_apply_xc_analytic           108 10.0    1.243    1.395   25.211   25.335
 calculate_rho_elec                 210  9.6    0.345    0.370   23.193   23.199
 qs_rho_update_rho_low              205  8.7    0.002    0.002   23.155   23.157
 scf_env_do_scf                       1  4.0    0.000    0.000   22.108   22.108
 response_force                       1  4.0    0.005    0.006   21.412   21.412
 hfx_ks_matrix                       18  8.8    0.001    0.001   20.351   20.351
 calculate_rho0_atom                636  9.9   19.025   20.225   19.025   20.225
 qs_ks_update_qs_env                 19  6.0    0.000    0.000   19.905   19.906
 xc_calc_2nd_deriv_analytical       777 11.2    1.641    1.827   19.515   19.876
 mp_alltoall_z22v                  3808 16.2   13.523   19.039   13.523   19.039
 xc_rho_set_and_dset_create         103 12.2    1.876    2.148   15.688   18.849
 density_rs2pw                      210 10.6    0.008    0.009   18.001   18.829
 qs_fxc_analytic                     40  8.0    0.001    0.002   18.541   18.646
 yz_to_x                           1939 15.3    4.303    4.682   12.991   18.048
 integrate_v_rspace                 174  9.4    0.003    0.004   16.408   17.130
 qs_vxc_create                       61 11.7    0.001    0.001   17.042   17.048
 xc_vxc_pw_create                    61 12.7    0.175    0.189   17.041   17.047
 scf_env_do_scf_inner_loop           17  5.0    0.000    0.001   16.376   16.376
 tddfpt_apply_coulomb               108 10.0    0.002    0.002   13.408   14.976
 xc_calc_2nd_deriv                   41  8.9    0.444    0.530   11.803   13.400
 qs_ks_update_qs_env_forces           1  3.0    0.000    0.000   12.773   12.774
 x_to_yz                           1869 15.0    6.116    6.927   10.951   12.676
 potential_pw2rs                    174 10.4    0.017    0.018   11.331   12.055
 qs_fgxc_gdiff                        1 11.0    0.000    0.000   11.945   11.947
 qs_fxc_fdiff                         7 12.0    0.001    0.001   11.915   11.918
 put_rho0_on_grid                   212  9.9    0.387    0.438    9.840   10.120
 transfer_rs2pw                    1053 11.5    0.011    0.013    8.816    9.772
 xc_prep_2nd_deriv                   42  8.9    0.000    0.000    7.359    8.806
 pw_gather_p                       1939 14.3    8.307    8.644    8.307    8.644
 apply_hfx                           39  7.0    0.001    0.001    8.098    8.105
 hfx_matrix                          39  8.0    0.001    0.001    8.095    8.102
 integrate_vhg0_rspace              170 10.0    1.848    1.994    7.938    7.950
 transfer_rs2pw_200                 423 12.2    3.379    3.516    6.956    7.916
 pw_poisson_solve                   171 10.0    0.003    0.003    6.066    7.663
 transfer_pw2rs                     867 11.3    0.008    0.009    7.606    7.638
 mp_sum_d                          2259  9.2    4.701    7.499    4.701    7.499
 xc_functional_eval                3244 12.0    0.004    0.007    3.614    6.679
 pw_scatter_p                      1869 14.0    6.198    6.363    6.198    6.363
 mp_waitany                       15360 13.2    5.150    6.155    5.150    6.155
 grid_collocate_task_list           210 10.6    4.375    5.971    4.375    5.971
 transfer_pw2rs_200                 345 12.2    2.937    2.972    5.892    5.946
 init_scf_loop                        1  5.0    0.000    0.000    5.731    5.731
 mp_sum_dv                         6847 10.5    2.531    5.678    2.531    5.678
 -------------------------------------------------------------------------------

 The number of warnings for this run is : 0
 
 -------------------------------------------------------------------------------
  **** **** ******  **  PROGRAM ENDED AT                 2025-01-06 09:49:03.711
 ***** ** ***  *** **   PROGRAM RAN ON                               nesh-clk411
 **    ****   ******    PROGRAM RAN BY                                  suphc356
 ***** **    ** ** **   PROGRAM PROCESS ID                               1710609
  **** **  *******  **  PROGRAM STOPPED IN /gxfs_work/cau/suphc356/NEWTONX_proje
                                           ct/Pyrazin_molecule/CP2K_GAPW_B3LYP_d
                                           ef2_TZVP/MOLDYN_BA_again/TRAJECTORIES
                                           /TRAJ63/TEMP
