 DBCSR| CPU Multiplication driver                                           XSMM (U)
 DBCSR| Multrec recursion limit                                              512 (U)
 DBCSR| Multiplication stack size                                           1000 (D)
 DBCSR| Maximum elements for images                                    UNLIMITED (U)
 DBCSR| Multiplicative factor virtual images                                   1 (U)
 DBCSR| Use multiplication densification                                       T (D)
 DBCSR| Multiplication size stacks                                             3 (U)
 DBCSR| Use memory pool for CPU allocation                                     F (U)
 DBCSR| Number of 3D layers                                               SINGLE (U)
 DBCSR| Use MPI memory allocation                                              F (U)
 DBCSR| Use RMA algorithm                                                      F (U)
 DBCSR| Use Communication thread                                               T (U)
 DBCSR| Communication thread load                                             87 (D)
 DBCSR| MPI: My process id                                                     0
 DBCSR| MPI: Number of processes                                              16
 DBCSR| OMP: Current number of threads                                         1
 DBCSR| OMP: Max number of threads                                             1
 DBCSR| Split modifier for TAS multiplication algorithm                  1.0E+00 (U)


  **** **** ******  **  PROGRAM STARTED AT               2025-01-08 15:01:53.756
 ***** ** ***  *** **   PROGRAM STARTED ON                           nesh-clk465
 **    ****   ******    PROGRAM STARTED BY                              suphc356
 ***** **    ** ** **   PROGRAM PROCESS ID                                404840
  **** **  *******  **  PROGRAM STARTED IN /gxfs_work/cau/suphc356/NEWTONX_proje
                                           ct/Pyrazin_molecule/CP2K_GAPW_B3LYP_d
                                           ef2_TZVP/MOLDYN_BA_again/TRAJECTORIES
                                           /TRAJ148/TEMP

 CP2K| version string:                 CP2K version 2024.1 (Development Version)
 CP2K| source code revision number:                                  git:990486a
 CP2K| cp2kflags: omp libint fftw3 libxc libgrpp parallel mpi_f08 scalapack cosm
 CP2K|            a xsmm spglib mkl
 CP2K| is freely available from                            https://www.cp2k.org/
 CP2K| Program compiled at                          Mon Mar 11 08:48:45 CET 2024
 CP2K| Program compiled on                                           nesh-login2
 CP2K| Program compiled for                                                local
 CP2K| Data directory path                 /gxfs_work/cau/suphc356/cp2k_gcc/data
 CP2K| Input file name                                                  cp2k.inp

 GLOBAL| Force Environment number                                              1
 GLOBAL| Basis set file name                                     EMSL_BASIS_SETS
 GLOBAL| Potential file name                                      ALL_POTENTIALS
 GLOBAL| MM Potential file name                                     MM_POTENTIAL
 GLOBAL| Coordinate file name                                      __STD_INPUT__
 GLOBAL| Method name                                                        CP2K
 GLOBAL| Project name                                               testsuite_ad
 GLOBAL| Run type                                                   ENERGY_FORCE
 GLOBAL| FFT library                                                       FFTW3
 GLOBAL| Diagonalization library                                       ScaLAPACK
 GLOBAL| DGEMM library                                                      BLAS
 GLOBAL| Orthonormality check for eigenvectors                          DISABLED
 GLOBAL| Matrix multiplication library                                     COSMA
 GLOBAL| All-to-all communication in single precision                          F
 GLOBAL| FFTs using library dependent lengths                                  F
 GLOBAL| Grid backend                                                       AUTO
 GLOBAL| Global print level                                               MEDIUM
 GLOBAL| MPI I/O enabled                                                       T
 GLOBAL| Total number of message passing processes                            16
 GLOBAL| Number of threads for this process                                    1
 GLOBAL| This output is from process                                           0
 GLOBAL| Stack size for threads created by OpenMP (OMP_STACKSIZE)           256M
 GLOBAL| CPU model name                Intel(R) Xeon(R) Gold 6226R CPU @ 2.90GHz
 GLOBAL| CPUID                                                              1003
 GLOBAL| Compiled for CPUID                                                    0

 *** HINT in environment.F:920 :: The compiler target flags (generic) used ***
 *** to build this binary cannot exploit all extensions of this CPU model  ***
 *** (x86_avx512). Consider compiler target flags as part of FCFLAGS and   ***
 *** CFLAGS (ARCH file).                                                   ***


 MEMORY| system memory details [Kb]
 MEMORY|                        rank 0           min           max       average
 MEMORY| MemTotal            196683224     196683224     196683224     196683224
 MEMORY| MemFree             177053420     177053420     177053420     177053420
 MEMORY| Buffers                558412        558412        558412        558412
 MEMORY| Cached                 645448        645448        645448        645448
 MEMORY| Slab                  4241588       4241588       4241588       4241588
 MEMORY| SReclaimable           169148        169148        169148        169148
 MEMORY| MemLikelyFree       178426428     178426428     178426428     178426428


 *** Fundamental physical constants (SI units) ***

 *** Literature: B. J. Mohr and B. N. Taylor,
 ***             CODATA recommended values of the fundamental physical
 ***             constants: 2006, Web Version 5.1
 ***             http://physics.nist.gov/constants

 Speed of light in vacuum [m/s]                             2.99792458000000E+08
 Magnetic constant or permeability of vacuum [N/A**2]       1.25663706143592E-06
 Electric constant or permittivity of vacuum [F/m]          8.85418781762039E-12
 Planck constant (h) [J*s]                                  6.62606896000000E-34
 Planck constant (h-bar) [J*s]                              1.05457162825177E-34
 Elementary charge [C]                                      1.60217648700000E-19
 Electron mass [kg]                                         9.10938215000000E-31
 Electron g factor [ ]                                     -2.00231930436220E+00
 Proton mass [kg]                                           1.67262163700000E-27
 Fine-structure constant                                    7.29735253760000E-03
 Rydberg constant [1/m]                                     1.09737315685270E+07
 Avogadro constant [1/mol]                                  6.02214179000000E+23
 Boltzmann constant [J/K]                                   1.38065040000000E-23
 Atomic mass unit [kg]                                      1.66053878200000E-27
 Bohr radius [m]                                            5.29177208590000E-11

 *** Conversion factors ***

 [u] -> [a.u.]                                              1.82288848426455E+03
 [Angstrom] -> [Bohr] = [a.u.]                              1.88972613288564E+00
 [a.u.] = [Bohr] -> [Angstrom]                              5.29177208590000E-01
 [a.u.] -> [s]                                              2.41888432650478E-17
 [a.u.] -> [fs]                                             2.41888432650478E-02
 [a.u.] -> [J]                                              4.35974393937059E-18
 [a.u.] -> [N]                                              8.23872205491840E-08
 [a.u.] -> [K]                                              3.15774647902944E+05
 [a.u.] -> [kJ/mol]                                         2.62549961709828E+03
 [a.u.] -> [kcal/mol]                                       6.27509468713739E+02
 [a.u.] -> [Pa]                                             2.94210107994716E+13
 [a.u.] -> [bar]                                            2.94210107994716E+08
 [a.u.] -> [atm]                                            2.90362800883016E+08
 [a.u.] -> [eV]                                             2.72113838565563E+01
 [a.u.] -> [Hz]                                             6.57968392072181E+15
 [a.u.] -> [1/cm] (wave numbers)                            2.19474631370540E+05
 [a.u./Bohr**2] -> [1/cm]                                   5.14048714338585E+03
 

 CELL_TOP| Volume [angstrom^3]:                                      2744.000000
 CELL_TOP| Vector a [angstrom    14.000     0.000     0.000   |a| =    14.000000
 CELL_TOP| Vector b [angstrom     0.000    14.000     0.000   |b| =    14.000000
 CELL_TOP| Vector c [angstrom     0.000     0.000    14.000   |c| =    14.000000
 CELL_TOP| Angle (b,c), alpha [degree]:                                90.000000
 CELL_TOP| Angle (a,c), beta  [degree]:                                90.000000
 CELL_TOP| Angle (a,b), gamma [degree]:                                90.000000
 CELL_TOP| Numerically orthorhombic:                                         YES
 CELL_TOP| Periodicity                                                      NONE

 CELL| Volume [angstrom^3]:                                          2744.000000
 CELL| Vector a [angstrom]:      14.000     0.000     0.000   |a| =    14.000000
 CELL| Vector b [angstrom]:       0.000    14.000     0.000   |b| =    14.000000
 CELL| Vector c [angstrom]:       0.000     0.000    14.000   |c| =    14.000000
 CELL| Angle (b,c), alpha [degree]:                                    90.000000
 CELL| Angle (a,c), beta  [degree]:                                    90.000000
 CELL| Angle (a,b), gamma [degree]:                                    90.000000
 CELL| Numerically orthorhombic:                                             YES
 CELL| Periodicity                                                          NONE

 CELL_REF| Volume [angstrom^3]:                                      2744.000000
 CELL_REF| Vector a [angstrom    14.000     0.000     0.000   |a| =    14.000000
 CELL_REF| Vector b [angstrom     0.000    14.000     0.000   |b| =    14.000000
 CELL_REF| Vector c [angstrom     0.000     0.000    14.000   |c| =    14.000000
 CELL_REF| Angle (b,c), alpha [degree]:                                90.000000
 CELL_REF| Angle (a,c), beta  [degree]:                                90.000000
 CELL_REF| Angle (a,b), gamma [degree]:                                90.000000
 CELL_REF| Numerically orthorhombic:                                         YES
 CELL_REF| Periodicity                                                      NONE

 *******************************************************************************
 *******************************************************************************
 **                                                                           **
 **     #####                         ##              ##                      **
 **    ##   ##            ##          ##              ##                      **
 **   ##     ##                       ##            ######                    **
 **   ##     ##  ##   ##  ##   #####  ##  ##   ####   ##    #####    #####    **
 **   ##     ##  ##   ##  ##  ##      ## ##   ##      ##   ##   ##  ##   ##   **
 **   ##  ## ##  ##   ##  ##  ##      ####     ###    ##   ######   ######    **
 **    ##  ###   ##   ##  ##  ##      ## ##      ##   ##   ##       ##        **
 **     #######   #####   ##   #####  ##  ##  ####    ##    #####   ##        **
 **           ##                                                    ##        **
 **                                                                           **
 **                                                ... make the atoms dance   **
 **                                                                           **
 **            Copyright (C) by CP2K developers group (2000-2024)             **
 **                      J. Chem. Phys. 152, 194103 (2020)                    **
 **                                                                           **
 *******************************************************************************

 DFT| Spin restricted Kohn-Sham (RKS) calculation                            RKS
 DFT| Multiplicity                                                             1
 DFT| Number of spin states                                                    1
 DFT| Charge                                                                   0
 DFT| Self-interaction correction (SIC)                                       NO
 DFT| Cutoffs: density                                              1.000000E-10
 DFT|          gradient                                             1.000000E-10
 DFT|          tau                                                  1.000000E-10
 DFT|          cutoff_smoothing_range                               0.000000E+00
 DFT| XC density smoothing                                                  NONE
 DFT| XC derivatives                                                          PW

 FUNCTIONAL| BECKE88:
 FUNCTIONAL| A. Becke, Phys. Rev. A 38, 3098 (1988) {LDA version}               
 FUNCTIONAL| LYP:
 FUNCTIONAL| C. Lee, W. Yang, R.G. Parr, Phys. Rev. B, 37, 785 (1988) {LDA versi
 FUNCTIONAL| on}                                                                
 FUNCTIONAL| VWN:
 FUNCTIONAL| S. H. Vosko, L. Wilk and M. Nusair, Can. J. Phys. 58, 1200 (1980) {
 FUNCTIONAL| LDA version}                                                       
 FUNCTIONAL| XALPHA:
 FUNCTIONAL| Dirac/Slater local exchange; parameter=  0.666 {LDA}               

 vdW POTENTIAL|                                                   Pair Potential
 vdW POTENTIAL|          DFT-D3 (Version 3.1)
 vdW POTENTIAL|          Potential Form: S. Grimme et al, JCP 132: 154104 (2010)
 vdW POTENTIAL|          Zero Damping
 vdW POTENTIAL|          Cutoff Radius [Bohr]:                             37.79
 vdW POTENTIAL|          s6 Scaling Factor:                               1.0000
 vdW POTENTIAL|          sr6 Scaling Factor:                              1.2610
 vdW POTENTIAL|          s8 Scaling Factor:                               1.7030
 vdW POTENTIAL|          Cutoff for CN calculation:                   0.1000E-05

 QS| Method:                                                                GAPW
 QS| Density plane wave grid type                        NON-SPHERICAL FULLSPACE
 QS| Number of grid levels:                                                    4
 QS| Density cutoff [a.u.]:                                                200.0
 QS| Multi grid cutoff [a.u.]: 1) grid level                               200.0
 QS|                           2) grid level                                66.7
 QS|                           3) grid level                                22.2
 QS|                           4) grid level                                 7.4
 QS| Grid level progression factor:                                          3.0
 QS| Relative density cutoff [a.u.]:                                        30.0
 QS| Interaction thresholds: eps_pgf_orb:                                1.0E-07
 QS|                         eps_filter_matrix:                          0.0E+00
 QS|                         eps_core_charge:                            1.0E-16
 QS|                         eps_rho_gspace:                             1.0E-14
 QS|                         eps_rho_rspace:                             1.0E-14
 QS|                         eps_gvg_rspace:                             1.0E-07
 QS|                         eps_ppl:                                    1.0E-02
 QS|                         eps_ppnl:                                   1.0E-09
 QS| GAPW|      One center basis extended with primitives (small:s)
 QS| GAPW|                   eps_fit:                                    1.0E-04
 QS| GAPW|                   eps_iso:                                    1.0E-12
 QS| GAPW|                   eps_svd:                                    1.0E-08
 QS| GAPW|                   eps_cpc:                                    1.0E-14
 QS| GAPW|   atom-r-grid: quadrature:                                     GC_LOG
 QS| GAPW|      atom-s-grid:  max l :                                          6
 QS| GAPW|      max_l_rho0 :                                                   4


 ATOMIC KIND INFORMATION

  1. Atomic kind: n                                     Number of atoms:       2

     Orbital Basis Set                                        Ahlrichs-def2-TZVP

       Number of orbital shell sets:                                          11
       Number of orbital shells:                                              11
       Number of primitive Cartesian functions:                               20
       Number of Cartesian basis functions:                                   36
       Number of spherical basis functions:                                   31
       Norm type:                                                              2

       Normalised Cartesian orbitals:

                        Set   Shell   Orbital            Exponent    Coefficient

                          1       1    1s            19730.800647       0.695604
                                                      2957.895874       1.298610
                                                       673.221336       2.219088
                                                       190.682495       3.463661
                                                        62.295442       4.696756
                                                        22.654161       4.952251

                          2       1    1s                8.979148       2.388068
                                                         3.686300       0.733788

                          3       1    1s                0.846601       0.629027

                          4       1    1s                0.336471       0.314863

                          5       1    1s                0.136477       0.160031

                          6       1    1px              49.200381       2.126481
                                                        11.346791       2.327937
                                                         3.427397       2.048573
                                                         1.178553       1.260732
                          6       1    1py              49.200381       2.126481
                                                        11.346791       2.327937
                                                         3.427397       2.048573
                                                         1.178553       1.260732
                          6       1    1pz              49.200381       2.126481
                                                        11.346791       2.327937
                                                         3.427397       2.048573
                                                         1.178553       1.260732

                          7       1    1px               0.416422       0.476823
                          7       1    1py               0.416422       0.476823
                          7       1    1pz               0.416422       0.476823

                          8       1    1px               0.142608       0.124917
                          8       1    1py               0.142608       0.124917
                          8       1    1pz               0.142608       0.124917

                          9       1    1dx2              1.654000       3.970513
                          9       1    1dxy              1.654000       6.877130
                          9       1    1dxz              1.654000       6.877130
                          9       1    1dy2              1.654000       3.970513
                          9       1    1dyz              1.654000       6.877130
                          9       1    1dz2              1.654000       3.970513

                         10       1    1dx2              0.469000       0.437484
                         10       1    1dxy              0.469000       0.757744
                         10       1    1dxz              0.469000       0.757744
                         10       1    1dy2              0.469000       0.437484
                         10       1    1dyz              0.469000       0.757744
                         10       1    1dz2              0.469000       0.437484

                         11       1    1fx3              1.093000       1.798249
                         11       1    1fx2y             1.093000       4.021007
                         11       1    1fx2z             1.093000       4.021007
                         11       1    1fxy2             1.093000       4.021007
                         11       1    1fxyz             1.093000       6.964588
                         11       1    1fxz2             1.093000       4.021007
                         11       1    1fy3              1.093000       1.798249
                         11       1    1fy2z             1.093000       4.021007
                         11       1    1fyz2             1.093000       4.021007
                         11       1    1fz3              1.093000       1.798249

       Atomic covalent radius [Angstrom]:                                  0.750

       Atomic van der Waals radius [Angstrom]:                             1.550

     The atoms of this atomic kind are PAW atoms (GAPW):
       Hard Gaussian function radius:                                      1.400
       Rho0 radius:                                                        1.400
       Maximum GTO radius used for PAW projector construction:            24.566

     GAPW Soft Basis Set                                 Ahlrichs-def2-TZVP_soft

       Number of orbital shell sets:                                          11
       Number of orbital shells:                                              11
       Number of primitive Cartesian functions:                               11
       Number of Cartesian basis functions:                                   36
       Number of spherical basis functions:                                   31
       Norm type:                                                              2

       Normalised Cartesian orbitals:

                        Set   Shell   Orbital            Exponent    Coefficient

                          1       1    1s         

                          2       1    1s                3.686300       0.733788

                          3       1    1s                0.846601       0.629027

                          4       1    1s                0.336471       0.314863

                          5       1    1s                0.136477       0.160031

                          6       1    1px               3.427397       2.048573
                                                         1.178553       1.260732
                          6       1    1py               3.427397       2.048573
                                                         1.178553       1.260732
                          6       1    1pz               3.427397       2.048573
                                                         1.178553       1.260732

                          7       1    1px               0.416422       0.476823
                          7       1    1py               0.416422       0.476823
                          7       1    1pz               0.416422       0.476823

                          8       1    1px               0.142608       0.124917
                          8       1    1py               0.142608       0.124917
                          8       1    1pz               0.142608       0.124917

                          9       1    1dx2              1.654000       3.970513
                          9       1    1dxy              1.654000       6.877130
                          9       1    1dxz              1.654000       6.877130
                          9       1    1dy2              1.654000       3.970513
                          9       1    1dyz              1.654000       6.877130
                          9       1    1dz2              1.654000       3.970513

                         10       1    1dx2              0.469000       0.437484
                         10       1    1dxy              0.469000       0.757744
                         10       1    1dxz              0.469000       0.757744
                         10       1    1dy2              0.469000       0.437484
                         10       1    1dyz              0.469000       0.757744
                         10       1    1dz2              0.469000       0.437484

                         11       1    1fx3              1.093000       1.798249
                         11       1    1fx2y             1.093000       4.021007
                         11       1    1fx2z             1.093000       4.021007
                         11       1    1fxy2             1.093000       4.021007
                         11       1    1fxyz             1.093000       6.964588
                         11       1    1fxz2             1.093000       4.021007
                         11       1    1fy3              1.093000       1.798249
                         11       1    1fy2z             1.093000       4.021007
                         11       1    1fyz2             1.093000       4.021007
                         11       1    1fz3              1.093000       1.798249

     AE Potential information for                                            ALL

       Description:                                       All-electron potential
                                          Krack, Parrinello, PCCP 2, 2105 (2000)

       Gaussian exponent of the core charge distribution:               5.979100
       Electronic configuration (s p d ...):                           4   3   0

  2. Atomic kind: c                                     Number of atoms:       4

     Orbital Basis Set                                        Ahlrichs-def2-TZVP

       Number of orbital shell sets:                                          11
       Number of orbital shells:                                              11
       Number of primitive Cartesian functions:                               20
       Number of Cartesian basis functions:                                   36
       Number of spherical basis functions:                                   31
       Norm type:                                                              2

       Normalised Cartesian orbitals:

                        Set   Shell   Orbital            Exponent    Coefficient

                          1       1    1s            13575.349682       0.543591
                                                      2035.233368       1.014554
                                                       463.225624       1.731573
                                                       131.200196       2.691038
                                                        42.853016       3.604455
                                                        15.584186       3.702556

                          2       1    1s                6.206714       1.838354
                                                         2.576490       0.544758

                          3       1    1s                0.576963       0.471815

                          4       1    1s                0.229728       0.236494

                          5       1    1s                0.095164       0.122114

                          6       1    1px              34.697232       1.359665
                                                         7.958262       1.451259
                                                         2.378083       1.270923
                                                         0.814332       0.802572
                          6       1    1py              34.697232       1.359665
                                                         7.958262       1.451259
                                                         2.378083       1.270923
                                                         0.814332       0.802572
                          6       1    1pz              34.697232       1.359665
                                                         7.958262       1.451259
                                                         2.378083       1.270923
                                                         0.814332       0.802572

                          7       1    1px               0.288875       0.301876
                          7       1    1py               0.288875       0.301876
                          7       1    1pz               0.288875       0.301876

                          8       1    1px               0.100568       0.080727
                          8       1    1py               0.100568       0.080727
                          8       1    1pz               0.100568       0.080727

                          9       1    1dx2              1.097000       1.935401
                          9       1    1dxy              1.097000       3.352214
                          9       1    1dxz              1.097000       3.352214
                          9       1    1dy2              1.097000       1.935401
                          9       1    1dyz              1.097000       3.352214
                          9       1    1dz2              1.097000       1.935401

                         10       1    1dx2              0.318000       0.221644
                         10       1    1dxy              0.318000       0.383899
                         10       1    1dxz              0.318000       0.383899
                         10       1    1dy2              0.318000       0.221644
                         10       1    1dyz              0.318000       0.383899
                         10       1    1dz2              0.318000       0.221644

                         11       1    1fx3              0.761000       0.796288
                         11       1    1fx2y             0.761000       1.780553
                         11       1    1fx2z             0.761000       1.780553
                         11       1    1fxy2             0.761000       1.780553
                         11       1    1fxyz             0.761000       3.084008
                         11       1    1fxz2             0.761000       1.780553
                         11       1    1fy3              0.761000       0.796288
                         11       1    1fy2z             0.761000       1.780553
                         11       1    1fyz2             0.761000       1.780553
                         11       1    1fz3              0.761000       0.796288

       Atomic covalent radius [Angstrom]:                                  0.770

       Atomic van der Waals radius [Angstrom]:                             1.700

     The atoms of this atomic kind are PAW atoms (GAPW):
       Hard Gaussian function radius:                                      1.520
       Rho0 radius:                                                        1.520
       Maximum GTO radius used for PAW projector construction:            24.566

     GAPW Soft Basis Set                                 Ahlrichs-def2-TZVP_soft

       Number of orbital shell sets:                                          11
       Number of orbital shells:                                              11
       Number of primitive Cartesian functions:                               11
       Number of Cartesian basis functions:                                   36
       Number of spherical basis functions:                                   31
       Norm type:                                                              2

       Normalised Cartesian orbitals:

                        Set   Shell   Orbital            Exponent    Coefficient

                          1       1    1s         

                          2       1    1s                2.576490       0.544758

                          3       1    1s                0.576963       0.471815

                          4       1    1s                0.229728       0.236494

                          5       1    1s                0.095164       0.122114

                          6       1    1px               2.378083       1.270923
                                                         0.814332       0.802572
                          6       1    1py               2.378083       1.270923
                                                         0.814332       0.802572
                          6       1    1pz               2.378083       1.270923
                                                         0.814332       0.802572

                          7       1    1px               0.288875       0.301876
                          7       1    1py               0.288875       0.301876
                          7       1    1pz               0.288875       0.301876

                          8       1    1px               0.100568       0.080727
                          8       1    1py               0.100568       0.080727
                          8       1    1pz               0.100568       0.080727

                          9       1    1dx2              1.097000       1.935401
                          9       1    1dxy              1.097000       3.352214
                          9       1    1dxz              1.097000       3.352214
                          9       1    1dy2              1.097000       1.935401
                          9       1    1dyz              1.097000       3.352214
                          9       1    1dz2              1.097000       1.935401

                         10       1    1dx2              0.318000       0.221644
                         10       1    1dxy              0.318000       0.383899
                         10       1    1dxz              0.318000       0.383899
                         10       1    1dy2              0.318000       0.221644
                         10       1    1dyz              0.318000       0.383899
                         10       1    1dz2              0.318000       0.221644

                         11       1    1fx3              0.761000       0.796288
                         11       1    1fx2y             0.761000       1.780553
                         11       1    1fx2z             0.761000       1.780553
                         11       1    1fxy2             0.761000       1.780553
                         11       1    1fxyz             0.761000       3.084008
                         11       1    1fxz2             0.761000       1.780553
                         11       1    1fy3              0.761000       0.796288
                         11       1    1fy2z             0.761000       1.780553
                         11       1    1fyz2             0.761000       1.780553
                         11       1    1fz3              0.761000       0.796288

     AE Potential information for                                            ALL

       Description:                                       All-electron potential
                                          Krack, Parrinello, PCCP 2, 2105 (2000)

       Gaussian exponent of the core charge distribution:               4.109048
       Electronic configuration (s p d ...):                           4   2   0

  3. Atomic kind: h                                     Number of atoms:       4

     Orbital Basis Set                                        Ahlrichs-def2-TZVP

       Number of orbital shell sets:                                           4
       Number of orbital shells:                                               4
       Number of primitive Cartesian functions:                                6
       Number of Cartesian basis functions:                                    6
       Number of spherical basis functions:                                    6
       Norm type:                                                              2

       Normalised Cartesian orbitals:

                        Set   Shell   Orbital            Exponent    Coefficient

                          1       1    1s               34.061341       0.255630
                                                         5.123575       0.461360
                                                         1.164663       0.681121

                          2       1    1s                0.327230       0.308355

                          3       1    1s                0.103072       0.129648

                          4       1    1px               0.800000       1.078456
                          4       1    1py               0.800000       1.078456
                          4       1    1pz               0.800000       1.078456

       Atomic covalent radius [Angstrom]:                                  0.320

       Atomic van der Waals radius [Angstrom]:                             1.090

     The atoms of this atomic kind are PAW atoms (GAPW):
       Hard Gaussian function radius:                                      1.000
       Rho0 radius:                                                        1.000
       Maximum GTO radius used for PAW projector construction:            24.566

     GAPW Soft Basis Set                                 Ahlrichs-def2-TZVP_soft

       Number of orbital shell sets:                                           4
       Number of orbital shells:                                               4
       Number of primitive Cartesian functions:                                5
       Number of Cartesian basis functions:                                    6
       Number of spherical basis functions:                                    6
       Norm type:                                                              2

       Normalised Cartesian orbitals:

                        Set   Shell   Orbital            Exponent    Coefficient

                          1       1    1s                5.123575       0.461360
                                                         1.164663       0.681121

                          2       1    1s                0.327230       0.308355

                          3       1    1s                0.103072       0.129648

                          4       1    1px               0.800000       1.078456
                          4       1    1py               0.800000       1.078456
                          4       1    1pz               0.800000       1.078456

     AE Potential information for                                            ALL

       Description:                                       All-electron potential
                                          Krack, Parrinello, PCCP 2, 2105 (2000)

       Gaussian exponent of the core charge distribution:              12.500000
       Electronic configuration (s p d ...):                           1   0   0


 MOLECULE KIND INFORMATION


 All atoms are their own molecule, skipping detailed information


 TOTAL NUMBERS AND MAXIMUM NUMBERS

  Total number of            - Atomic kinds:                                   3
                             - Atoms:                                         10
                             - Shell sets:                                    82
                             - Shells:                                        82
                             - Primitive Cartesian functions:                144
                             - Cartesian basis functions:                    240
                             - Spherical basis functions:                    210

  Maximum angular momentum of the orbital basis functions:                     3


 MODULE QUICKSTEP: ATOMIC COORDINATES IN ANGSTROM

   Atom Kind Element         X             Y             Z       Z(eff)     Mass
      1    1 n     7      7.286622      8.404476      7.560349   7.0000  14.0067
      2    1 n     7      7.288377      5.940579      6.332861   7.0000  14.0067
      3    2 c     6      7.277315      7.123007      8.292701   6.0000  12.0107
      4    2 c     6      7.169654      5.980916      7.725065   6.0000  12.0107
      5    2 c     6      7.345118      8.342638      6.338670   6.0000  12.0107
      6    2 c     6      7.202421      7.061081      5.536343   6.0000  12.0107
      7    3 h     1      7.147049      7.129393      9.375892   1.0000   1.0079
      8    3 h     1      7.543910      4.958247      7.976608   1.0000   1.0079
      9    3 h     1      7.098102      9.041753      5.534752   1.0000   1.0079
     10    3 h     1      6.456090      7.282016      4.624108   1.0000   1.0079



 SCF PARAMETERS         Density guess:                                   RESTART
                        --------------------------------------------------------
                        max_scf:                                              50
                        max_scf_history:                                       0
                        max_diis:                                              4
                        --------------------------------------------------------
                        eps_scf:                                        1.00E-08
                        eps_scf_history:                                0.00E+00
                        eps_diis:                                       1.00E-01
                        eps_eigval:                                     1.00E-05
                        --------------------------------------------------------
                        level_shift [a.u.]:                             0.000000
                        --------------------------------------------------------
                        Outer loop SCF in use 
                        No variables optimised in outer loop
                        eps_scf                                         1.00E-08
                        max_scf                                              900
                        No outer loop optimization
                        step_size                                       5.00E-01

 PW_GRID| Information for grid number                                          1
 PW_GRID| Grid distributed over                                    16 processors
 PW_GRID| Real space group dimensions                                    16    1
 PW_GRID| the grid is blocked:                                                NO
 PW_GRID| Cutoff [a.u.]                                                    400.0
 PW_GRID| spherical cutoff:                                                   NO
 PW_GRID|   Bounds   1           -120     119                Points:         240
 PW_GRID|   Bounds   2           -120     119                Points:         240
 PW_GRID|   Bounds   3           -120     119                Points:         240
 PW_GRID| Volume element (a.u.^3)  0.1340E-02     Volume (a.u.^3)     18517.4301
 PW_GRID| Grid span                                                    FULLSPACE
 PW_GRID|   Distribution                         Average         Max         Min
 PW_GRID|   G-Vectors                           864000.0      864000      864000
 PW_GRID|   G-Rays                                3600.0        3600        3600
 PW_GRID|   Real Space Points                   864000.0      864000      864000

 PW_GRID| Information for grid number                                          2
 PW_GRID| Number of the reference grid                                         1
 PW_GRID| Grid distributed over                                    16 processors
 PW_GRID| Real space group dimensions                                    16    1
 PW_GRID| the grid is blocked:                                                NO
 PW_GRID| Cutoff [a.u.]                                                    200.0
 PW_GRID| spherical cutoff:                                                   NO
 PW_GRID|   Bounds   1            -90      89                Points:         180
 PW_GRID|   Bounds   2            -90      89                Points:         180
 PW_GRID|   Bounds   3            -90      89                Points:         180
 PW_GRID| Volume element (a.u.^3)  0.3175E-02     Volume (a.u.^3)     18517.4301
 PW_GRID| Grid span                                                    FULLSPACE
 PW_GRID|   Distribution                         Average         Max         Min
 PW_GRID|   G-Vectors                           364500.0      364680      364320
 PW_GRID|   G-Rays                                2025.0        2026        2024
 PW_GRID|   Real Space Points                   364500.0      388800      356400

 PW_GRID| Information for grid number                                          3
 PW_GRID| Number of the reference grid                                         2
 PW_GRID| Grid distributed over                                    16 processors
 PW_GRID| Real space group dimensions                                    16    1
 PW_GRID| the grid is blocked:                                                NO
 PW_GRID| Cutoff [a.u.]                                                     66.7
 PW_GRID| spherical cutoff:                                                   NO
 PW_GRID|   Bounds   1            -50      49                Points:         100
 PW_GRID|   Bounds   2            -50      49                Points:         100
 PW_GRID|   Bounds   3            -50      49                Points:         100
 PW_GRID| Volume element (a.u.^3)  0.1852E-01     Volume (a.u.^3)     18517.4301
 PW_GRID| Grid span                                                    FULLSPACE
 PW_GRID|   Distribution                         Average         Max         Min
 PW_GRID|   G-Vectors                            62500.0       62600       62400
 PW_GRID|   G-Rays                                 625.0         626         624
 PW_GRID|   Real Space Points                    62500.0       70000       60000

 PW_GRID| Information for grid number                                          4
 PW_GRID| Number of the reference grid                                         2
 PW_GRID| Grid distributed over                                    16 processors
 PW_GRID| Real space group dimensions                                    16    1
 PW_GRID| the grid is blocked:                                                NO
 PW_GRID| Cutoff [a.u.]                                                     22.2
 PW_GRID| spherical cutoff:                                                   NO
 PW_GRID|   Bounds   1            -30      29                Points:          60
 PW_GRID|   Bounds   2            -30      29                Points:          60
 PW_GRID|   Bounds   3            -30      29                Points:          60
 PW_GRID| Volume element (a.u.^3)  0.8573E-01     Volume (a.u.^3)     18517.4301
 PW_GRID| Grid span                                                    FULLSPACE
 PW_GRID|   Distribution                         Average         Max         Min
 PW_GRID|   G-Vectors                            13500.0       13560       13440
 PW_GRID|   G-Rays                                 225.0         226         224
 PW_GRID|   Real Space Points                    13500.0       14400       10800

 PW_GRID| Information for grid number                                          5
 PW_GRID| Number of the reference grid                                         2
 PW_GRID| Grid distributed over                                    16 processors
 PW_GRID| Real space group dimensions                                    16    1
 PW_GRID| the grid is blocked:                                                NO
 PW_GRID| Cutoff [a.u.]                                                      7.4
 PW_GRID| spherical cutoff:                                                   NO
 PW_GRID|   Bounds   1            -18      17                Points:          36
 PW_GRID|   Bounds   2            -18      17                Points:          36
 PW_GRID|   Bounds   3            -18      17                Points:          36
 PW_GRID| Volume element (a.u.^3)  0.3969         Volume (a.u.^3)     18517.4301
 PW_GRID| Grid span                                                    FULLSPACE
 PW_GRID|   Distribution                         Average         Max         Min
 PW_GRID|   G-Vectors                             2916.0        2952        2880
 PW_GRID|   G-Rays                                  81.0          82          80
 PW_GRID|   Real Space Points                     2916.0        3888        2592

 POISSON| Solver                                          Martyna-Tuckerman (MT)
 POISSON| MT| Alpha                                                        7.000
 POISSON| MT| Relative cutoff                                                2.0
 POISSON| Periodicity                                                       NONE

 RS_GRID| Information for grid number                                          2
 RS_GRID|   Bounds   1            -90      89                Points:         180
 RS_GRID|   Bounds   2            -90      89                Points:         180
 RS_GRID|   Bounds   3            -90      89                Points:         180
 RS_GRID| Real space distribution over                                  4 groups
 RS_GRID| Real space distribution along direction                              2
 RS_GRID| Border size                                                         31
 RS_GRID| Real space distribution over                                  4 groups
 RS_GRID| Real space distribution along direction                              3
 RS_GRID| Border size                                                         31
 RS_GRID|   Distribution                         Average         Max         Min
 RS_GRID|   Planes                                 107.0         107         107
 RS_GRID|   Distribution                         Average         Max         Min
 RS_GRID|   Planes                                 107.0         107         107

 RS_GRID| Information for grid number                                          3
 RS_GRID|   Bounds   1            -50      49                Points:         100
 RS_GRID|   Bounds   2            -50      49                Points:         100
 RS_GRID|   Bounds   3            -50      49                Points:         100
 RS_GRID| Real space fully replicated
 RS_GRID| Group size                                                           1

 RS_GRID| Information for grid number                                          4
 RS_GRID|   Bounds   1            -30      29                Points:          60
 RS_GRID|   Bounds   2            -30      29                Points:          60
 RS_GRID|   Bounds   3            -30      29                Points:          60
 RS_GRID| Real space fully replicated
 RS_GRID| Group size                                                           1

 RS_GRID| Information for grid number                                          5
 RS_GRID|   Bounds   1            -18      17                Points:          36
 RS_GRID|   Bounds   2            -18      17                Points:          36
 RS_GRID|   Bounds   3            -18      17                Points:          36
 RS_GRID| Real space fully replicated
 RS_GRID| Group size                                                           1

  HFX_INFO| Replica ID:                                                        1
  HFX_INFO| FRACTION:                                               0.2000000000
  HFX_INFO| Interaction Potential:                                       COULOMB
  HFX_INFO| EPS_SCHWARZ:                                                 1.0E-10
  HFX_INFO| EPS_SCHWARZ_FORCES                                           1.0E-08
  HFX_INFO| EPS_STORAGE_SCALING:                                         1.0E+00
  HFX_INFO| NBINS:                                                            64
  HFX_INFO| BLOCK_SIZE:                                                        1
  HFX_INFO| Number of periodic shells considered:                           NONE
  HFX_INFO| Number of periodic cells considered:                            NONE


 Number of electrons:                                                         42
 Number of occupied orbitals:                                                 21
 Number of molecular orbitals:                                                21

 Number of orbital functions:                                                210
 Number of independent orbital functions:                                    210

 Extrapolation method: initial_guess


 SCF WAVEFUNCTION OPTIMIZATION

  ----------------------------------- OT ---------------------------------------
  Minimizer      : DIIS                : direct inversion
                                         in the iterative subspace
                                         using   7 DIIS vectors
                                         safer DIIS on
  Preconditioner : FULL_ALL            : diagonalization, state selective
  Precond_solver : DEFAULT
  stepsize       :    0.15000000                  energy_gap     :    0.08000000
  eps_taylor     :   0.10000E-15                  max_taylor     :             4
  ----------------------------------- OT ---------------------------------------

  Step     Update method      Time    Convergence         Total energy    Change
  ------------------------------------------------------------------------------

  HFX_MEM_INFO| Est. max. program size before HFX [MiB]:                     637
  HFX_MEM_INFO| Number of cart. primitive ERI's calculated:           1710791659
  HFX_MEM_INFO| Number of sph. ERI's calculated:                       315788400
  HFX_MEM_INFO| Number of sph. ERI's stored in-core:                   315788400
  HFX_MEM_INFO| Number of sph. ERI's stored on disk:                           0
  HFX_MEM_INFO| Number of sph. ERI's calculated on the fly:                    0
  HFX_MEM_INFO| Total memory consumption ERI's RAM [MiB]:                    936
  HFX_MEM_INFO| Whereof max-vals [MiB]:                                        5
  HFX_MEM_INFO| Total compression factor ERI's RAM:                         2.58
  HFX_MEM_INFO| Total memory consumption ERI's disk [MiB]:                     0
  HFX_MEM_INFO| Total compression factor ERI's disk:                        0.00
  HFX_MEM_INFO| Size of density/Fock matrix [MiB]:                             0
  HFX_MEM_INFO| Size of buffers [MiB]:                                         0
  HFX_MEM_INFO| Est. max. program size after HFX  [MiB]:                     695

     1 OT DIIS     0.15E+00    5.8     0.01378307      -264.0343945245 -2.64E+02
     2 OT DIIS     0.15E+00    1.0     0.00653143      -264.1192625857 -8.49E-02
     3 OT DIIS     0.15E+00    1.0     0.00450784      -264.1362638858 -1.70E-02
     4 OT DIIS     0.15E+00    1.0     0.00078999      -264.1410463673 -4.78E-03
     5 OT DIIS     0.15E+00    1.0     0.00028348      -264.1411946807 -1.48E-04
     6 OT DIIS     0.15E+00    1.0     0.00011899      -264.1412213956 -2.67E-05
     7 OT DIIS     0.15E+00    1.0     0.00006133      -264.1412262072 -4.81E-06
     8 OT DIIS     0.15E+00    1.0     0.00002306      -264.1412272311 -1.02E-06
     9 OT DIIS     0.15E+00    1.0     0.00000782      -264.1412273838 -1.53E-07
    10 OT DIIS     0.15E+00    1.0     0.00000316      -264.1412274123 -2.84E-08
    11 OT DIIS     0.15E+00    1.0     0.00000114      -264.1412274174 -5.11E-09
    12 OT DIIS     0.15E+00    1.0     0.00000049      -264.1412274181 -7.08E-10
    13 OT DIIS     0.15E+00    1.0     0.00000033      -264.1412274182 -8.41E-11
    14 OT DIIS     0.15E+00    1.0     0.00000010      -264.1412274182 -2.96E-11
    15 OT DIIS     0.15E+00    1.0     0.00000005      -264.1412274182 -8.24E-12
    16 OT DIIS     0.15E+00    1.0     0.00000002      -264.1412274182 -1.71E-13
    17 OT DIIS     0.15E+00    1.0     0.00000001      -264.1412274182 -9.09E-13
    18 OT DIIS     0.15E+00    1.0     4.3758E-09      -264.1412274182 -7.96E-13

  *** SCF run converged in    18 steps ***


  Electronic density on regular grids:        -30.6516051214       11.3483948786
  Core density on regular grids:               42.0000000000       -0.0000000000
  Hard and soft densities (Lebedev):          -95.3365595519      -83.9881646558
  Total Rho_soft + Rho1_hard - Rho1_soft      -42.0000000175
  Total charge density (r-space):              -0.0000000175
  Total Rho_soft + Rho0_soft (g-space):        -0.0000000431

  Overlap energy of the core charge distribution:               0.00002243244750
  Self energy of the core charge distribution:               -217.69203579805162
  Core Hamiltonian energy:                                    -42.01172302692184
  Hartree energy:                                             109.90404328590827
  Exchange-correlation energy:                                -11.16678912128538
  Hartree-Fock Exchange energy:                                -7.04260553642784
  Dispersion energy:                                           -0.00387444083009

  GAPW| Exc from hard and soft atomic rho1:                   -18.55192485092965
  GAPW| local Eh = 1 center integrals:                        -77.57634036211539

  Total energy:                                              -264.14122741820603

  outer SCF iter =    1 RMS gradient =   0.44E-08 energy =       -264.1412274182
  outer SCF loop converged in   1 iterations or   18 steps


 !-----------------------------------------------------------------------------!
                     Mulliken Population Analysis

 #  Atom  Element  Kind  Atomic population                           Net charge
       1     n        1          7.161810                             -0.161810
       2     n        1          7.253327                             -0.253327
       3     c        2          6.009433                             -0.009433
       4     c        2          6.008481                             -0.008481
       5     c        2          6.045254                             -0.045254
       6     c        2          6.021875                             -0.021875
       7     h        3          0.877202                              0.122798
       8     h        3          0.858485                              0.141515
       9     h        3          0.900667                              0.099333
      10     h        3          0.863465                              0.136535
 # Total charge                             42.000000                 -0.000000

 !-----------------------------------------------------------------------------!

 !-----------------------------------------------------------------------------!
                           Hirshfeld Charges

  #Atom  Element  Kind  Ref Charge     Population                    Net charge
      1       n      1       7.000          7.260                        -0.260
      2       n      1       7.000          7.328                        -0.328
      3       c      2       6.000          6.337                        -0.337
      4       c      2       6.000          6.338                        -0.338
      5       c      2       6.000          6.335                        -0.335
      6       c      2       6.000          6.367                        -0.367
      7       h      3       1.000          0.509                         0.491
      8       h      3       1.000          0.500                         0.500
      9       h      3       1.000          0.514                         0.486
     10       h      3       1.000          0.498                         0.502

  Total Charge                                                            0.012
 !-----------------------------------------------------------------------------!

 *******************************************************************************
 **                                                                           **
 **         ######## #######   #######   ######## #######  ########           **
 **            ##    ##     ## ##     ## ##       ##   ##     ##              **
 **            ##    ##     ## ##     ## ######   #######     ##              **
 **            ##    ##     ## ##     ## ##       ##          ##              **
 **            ##    #######   #######   ##       ##          ##              **
 **                                                                           **
 *******************************************************************************
 KERNEL|                                                                    FULL
 FUNCTIONAL| BECKE88:
 FUNCTIONAL| A. Becke, Phys. Rev. A 38, 3098 (1988) {LDA version}               
 FUNCTIONAL| LYP:
 FUNCTIONAL| C. Lee, W. Yang, R.G. Parr, Phys. Rev. B, 37, 785 (1988) {LDA versi
 FUNCTIONAL| on}                                                                
 FUNCTIONAL| VWN:
 FUNCTIONAL| S. H. Vosko, L. Wilk and M. Nusair, Can. J. Phys. 58, 1200 (1980) {
 FUNCTIONAL| LDA version}                                                       
 FUNCTIONAL| XALPHA:
 FUNCTIONAL| Dirac/Slater local exchange; parameter=  0.666 {LDA}               
 KERNEL|                                                          Exact Exchange
 KERNEL| Spin symmetry of excitations                                    Singlet
 TDDFPT| Number of states calculated                                           9
 TDDFPT| Number of Davidson iterations                                       100
 TDDFPT| Davidson iteration convergence                                0.367E-09
 TDDFPT| Max. number of Krylov space vectors                                5000
 TDDFPT| Molecular Orbitals:        Spin       AOs       Occ      Virt     Total
 TDDFPT|                               1       210        21       189       210
 
 -------------------------------------------------------------------------------
 -                            TDDFPT Initial Guess                             -
 -------------------------------------------------------------------------------
          State         Occupied      ->      Virtual          Excitation
          number         orbital              orbital          energy (eV)
 -------------------------------------------------------------------------------
             1               21                   22              3.77973
             2               21                   23              5.08640
             3               20                   22              5.62288
             4               19                   22              5.90352
             5               18                   22              6.65808
             6               20                   23              6.92955
             7               21                   24              7.08842
             8               19                   23              7.21019
             9               21                   25              7.78552

      Number of active states:                                       3969
 -------------------------------------------------------------------------------
 
 -------------------------------------------------------------------------------
 -                      TDDFPT WAVEFUNCTION OPTIMIZATION                       -
 -------------------------------------------------------------------------------

          Step            Time         Convergence           Conv. states
 -------------------------------------------------------------------------------

    State    Exc. energy (eV)      Convergence (eV)
        1       2.5979846            -1.1817E+00
        2       3.9129027            -1.1735E+00
        3       4.6502652            -9.7261E-01
        4       5.7289335            -1.7458E-01
        5       6.0674968            -5.9059E-01
        6       6.3363141            -5.9324E-01
        7       6.9222036            -1.6622E-01
        8       7.6346953             4.2451E-01
        9       9.0749044             1.2894E+00

             1            10.6          4.7384E-02                      0

    State    Exc. energy (eV)      Convergence (eV)
        1       2.5088104            -8.9174E-02
        2       3.8421044            -7.0798E-02
        3       4.5788357            -7.1430E-02
        4       5.3920517            -3.3688E-01
        5       5.8632824            -2.0421E-01
        6       6.0454466            -2.9087E-01
        7       6.3010347            -6.2117E-01
        8       6.8069927            -8.2770E-01
        9       7.3692336            -1.7057E+00

             2            10.5          6.2682E-02                      0

    State    Exc. energy (eV)      Convergence (eV)
        1       2.5059769            -2.8335E-03
        2       3.8378318            -4.2726E-03
        3       4.5745765            -4.2592E-03
        4       5.3522844            -3.9767E-02
        5       5.8444808            -1.8802E-02
        6       5.9981501            -4.7297E-02
        7       6.2027441            -9.8291E-02
        8       6.7506706            -5.6322E-02
        9       6.9066324            -4.6260E-01

             3            10.5          1.7000E-02                      0

    State    Exc. energy (eV)      Convergence (eV)
        1       2.5059033            -7.3543E-05
        2       3.8376190            -2.1274E-04
        3       4.5744716            -1.0493E-04
        4       5.3509009            -1.3835E-03
        5       5.8434866            -9.9416E-04
        6       5.9948725            -3.2776E-03
        7       6.1972627            -5.4813E-03
        8       6.7280323            -2.2638E-02
        9       6.8473062            -5.9326E-02

             4            10.5          2.1802E-03                      0

    State    Exc. energy (eV)      Convergence (eV)
        1       2.5059024            -8.9303E-07
        2       3.8376139            -5.1376E-06
        3       4.5744685            -3.0518E-06
        4       5.3508782            -2.2629E-05
        5       5.8434626            -2.3955E-05
        6       5.9947132            -1.5933E-04
        7       6.1968792            -3.8350E-04
        8       6.7198728            -8.1596E-03
        9       6.7707591            -7.6547E-02

             5            10.5          2.8131E-03                      0

    State    Exc. energy (eV)      Convergence (eV)
        1       2.5059024            -7.9646E-09
        2       3.8376139            -5.2409E-08
        3       4.5744685            -4.4989E-08
        4       5.3508778            -4.4713E-07
        5       5.8434620            -6.0463E-07
        6       5.9947076            -5.6041E-06
        7       6.1968668            -1.2477E-05
        8       6.7191243            -7.4845E-04
        9       6.7569677            -1.3791E-02

             6            10.5          5.0682E-04                      1

    State    Exc. energy (eV)      Convergence (eV)
        1       2.5059024            -4.9698E-11
        2       3.8376139            -4.6138E-10
        3       4.5744685            -5.1864E-10
        4       5.3508778            -6.6370E-09
        5       5.8434620            -1.2842E-08
        6       5.9947075            -1.1640E-07
        7       6.1968664            -3.2320E-07
        8       6.7190794            -4.4974E-05
        9       6.7561464            -8.2136E-04

             7            10.4          3.0184E-05                      4

    State    Exc. energy (eV)      Convergence (eV)
        1       2.5059024            -3.3949E-13
        2       3.8376139            -3.4969E-12
        3       4.5744685            -4.3738E-12
        4       5.3508778            -5.8794E-11
        5       5.8434620            -2.3309E-10
        6       5.9947075            -1.8505E-09
        7       6.1968664            -7.6222E-09
        8       6.7190776            -1.7868E-06
        9       6.7561173            -2.9107E-05

             8            10.5          1.0697E-06                      7

    State    Exc. energy (eV)      Convergence (eV)
        1       2.5059024            -1.2462E-14
        2       3.8376139            -3.7008E-14
        3       4.5744685            -2.0392E-14
        4       5.3508778            -4.3654E-13
        5       5.8434620            -2.9780E-12
        6       5.9947075            -1.4802E-11
        7       6.1968664            -7.7116E-11
        8       6.7190775            -2.6805E-08
        9       6.7561168            -4.5215E-07

             9            10.5          1.6616E-08                      7

    State    Exc. energy (eV)      Convergence (eV)
        1       2.5059024             1.2084E-14
        2       3.8376139             8.3079E-15
        3       4.5744685            -1.2840E-14
        4       5.3508778            -1.2840E-14
        5       5.8434620            -2.2658E-14
        6       5.9947075            -1.1102E-13
        7       6.1968664            -6.6992E-13
        8       6.7190775            -3.7929E-10
        9       6.7561168            -6.1385E-09

            10            10.4          2.2559E-10                      9
 ------------------------- Restart Davidson iterations -------------------------

    State    Exc. energy (eV)      Convergence (eV)
        1       2.5059024            -1.8882E-15
        2       3.8376139             0.0000E+00
        3       4.5744685             8.3079E-15
        4       5.3508778             3.7763E-15
        5       5.8434620            -2.2658E-15
        6       5.9947075            -9.8185E-15
        7       6.1968664            -2.5679E-14
        8       6.7190775            -2.7945E-14
        9       6.7561168            -3.5498E-14

            11            10.4          1.3045E-15                      9
 
 -------------------------------------------------------------------------------
 -  TDDFPT run converged in 11 iteration(s) 
 -------------------------------------------------------------------------------

 R-TDDFPT states of multiplicity 1
 Transition dipoles calculated using length formulation

         State    Excitation        Transition dipole (a.u.)        Oscillator
         number   energy (eV)       x           y           z     strength (a.u.)
         ------------------------------------------------------------------------
 TDDFPT|      1       2.50590   2.2703E-01  3.6857E-02 -1.9148E-01   5.49864E-03
 TDDFPT|      2       3.83761   1.4980E-01  1.6136E-01  1.4983E-01   6.66850E-03
 TDDFPT|      3       4.57447   1.8432E-03  4.2934E-02  9.7916E-03   2.17712E-04
 TDDFPT|      4       5.35088   3.4233E-02 -2.4606E-01  6.9512E-01   7.14339E-02
 TDDFPT|      5       5.84346   5.7589E-02  8.0423E-02 -3.4456E-01   1.83968E-02
 TDDFPT|      6       5.99471   6.9669E-02 -2.2145E-02 -1.1689E-01   2.79147E-03
 TDDFPT|      7       6.19687   7.8490E-02 -4.2271E-01  7.0929E-01   1.04443E-01
 TDDFPT|      8       6.71908   1.5687E-01  3.0538E-01  7.2757E-01   1.06542E-01
 TDDFPT|      9       6.75612  -1.7222E-02 -1.4255E-01  3.0911E-01   1.92277E-02

 TDDFPT : CheckSum  =  0.603673E+00
 
 -------------------------------------------------------------------------------
 -                            Excitation analysis                              -
 -------------------------------------------------------------------------------
        State             Occupied              Virtual             Excitation
        number             orbital              orbital             amplitude
 -------------------------------------------------------------------------------
             1   2.50590 eV
                                21                   22              -0.982749
                                20                   22              -0.152102
                                19                   22               0.070756
             2   3.83761 eV
                                21                   23              -0.982480
                                20                   23              -0.123071
                                18                   22              -0.099931
                                20                   22               0.054252
             3   4.57447 eV
                                19                   22              -0.979989
                                20                   22              -0.161613
             4   5.35088 eV
                                20                   22              -0.730137
                                20                   23              -0.409415
                                18                   22               0.364298
                                18                   23              -0.240123
                                21                   24               0.223357
                                19                   22               0.107745
                                21                   22               0.102261
                                17                   22               0.076408
                                19                   23              -0.072817
             5   5.84346 eV
                                19                   23              -0.917846
                                20                   22               0.223102
                                18                   22               0.159874
                                21                   24               0.147070
                                20                   23              -0.127971
                                18                   23               0.118495
                                21                   25               0.084954
                                21                   26               0.076558
                                17                   22              -0.061990
             6   5.99471 eV
                                18                   22               0.558683
                                20                   23              -0.481906
                                21                   24              -0.463409
                                20                   22               0.359181
                                19                   23               0.183043
                                17                   22              -0.124299
                                18                   23              -0.106661
                                19                   22              -0.100497
                                21                   22              -0.070167
                                16                   22              -0.068458
             7   6.19687 eV
                                21                   24              -0.784516
                                19                   23              -0.308299
                                20                   22              -0.272542
                                18                   22              -0.263537
                                17                   22               0.259177
                                21                   26              -0.156636
                                21                   25              -0.134334
                                18                   23              -0.075710
                                16                   22               0.057336
                                15                   22               0.051203
             8   6.71908 eV
                                21                   25               0.559980
                                17                   22              -0.508350
                                20                   23               0.445884
                                21                   24              -0.252506
                                18                   22               0.238016
                                20                   22              -0.185763
                                21                   27               0.116369
                                21                   26               0.099239
                                17                   23              -0.078976
                                21                   23              -0.071704
                                18                   23              -0.066948
                                21                   35               0.057978
             9   6.75612 eV
                                21                   26               0.958749
                                17                   22               0.180071
                                21                   25              -0.107560
                                21                   24              -0.099054
                                18                   23              -0.084077
                                21                   27              -0.062258
                                21                   28               0.054652
 -------------------------------------------------------------------------------
 
 -------------------------------------------------------------------------------
 -                            Natural Orbital analysis                         -
 -------------------------------------------------------------------------------
   STATE NR.      1             2.50590 eV
     Particle-Hole state: 1   Spin:1     Eigenvalue: 0.99630   Sum Eigv: 0.99630
   STATE NR.      2             3.83761 eV
     Particle-Hole state: 1   Spin:1     Eigenvalue: 0.98311   Sum Eigv: 0.98311
   STATE NR.      3             4.57447 eV
     Particle-Hole state: 1   Spin:1     Eigenvalue: 0.99393   Sum Eigv: 0.99393
   STATE NR.      4             5.35088 eV
     Particle-Hole state: 1   Spin:1     Eigenvalue: 0.77182   Sum Eigv: 0.77182
     Particle-Hole state: 2   Spin:1     Eigenvalue: 0.16513   Sum Eigv: 0.93695
     Particle-Hole state: 3   Spin:1     Eigenvalue: 0.05421   Sum Eigv: 0.99116
   STATE NR.      5             5.84346 eV
     Particle-Hole state: 1   Spin:1     Eigenvalue: 0.87680   Sum Eigv: 0.87680
     Particle-Hole state: 2   Spin:1     Eigenvalue: 0.08320   Sum Eigv: 0.96000
     Particle-Hole state: 3   Spin:1     Eigenvalue: 0.03758   Sum Eigv: 0.99758
   STATE NR.      6             5.99471 eV
     Particle-Hole state: 1   Spin:1     Eigenvalue: 0.65569   Sum Eigv: 0.65569
     Particle-Hole state: 2   Spin:1     Eigenvalue: 0.22180   Sum Eigv: 0.87750
     Particle-Hole state: 3   Spin:1     Eigenvalue: 0.10812   Sum Eigv: 0.98561
   STATE NR.      7             6.19687 eV
     Particle-Hole state: 1   Spin:1     Eigenvalue: 0.66364   Sum Eigv: 0.66364
     Particle-Hole state: 2   Spin:1     Eigenvalue: 0.22322   Sum Eigv: 0.88686
     Particle-Hole state: 3   Spin:1     Eigenvalue: 0.10669   Sum Eigv: 0.99355
   STATE NR.      8             6.71908 eV
     Particle-Hole state: 1   Spin:1     Eigenvalue: 0.44166   Sum Eigv: 0.44166
     Particle-Hole state: 2   Spin:1     Eigenvalue: 0.35947   Sum Eigv: 0.80114
     Particle-Hole state: 3   Spin:1     Eigenvalue: 0.18761   Sum Eigv: 0.98874
   STATE NR.      9             6.75612 eV
[...]
 # MPI messages exchanged                  145056
 MPI messages size (bytes):
  total size                         1.098238E+09
  min size                           0.000000E+00
  max size                          31.744000E+03
  average size                       7.571133E+03
 MPI breakdown and total messages size (bytes):
             size <=      128               81564                        0
       128 < size <=     8192               11760                 80474688
      8192 < size <=    32768               51732               1017763488
     32768 < size <=   131072                   0                        0
    131072 < size <=  4194304                   0                        0
   4194304 < size <= 16777216                   0                        0
  16777216 < size                               0                        0
 -------------------------------------------------------------------------------
 -                                                                             -
 -                      DBCSR MESSAGE PASSING PERFORMANCE                      -
 -                                                                             -
 -------------------------------------------------------------------------------
 ROUTINE             CALLS      AVE VOLUME [Bytes]
 MP_Bcast               28                     12.
 MP_Allreduce         6513                      8.
 MP_Alltoall         24957                   2763.
 MP_ISend            24172                   3571.
 MP_IRecv            24172                   3285.
 -------------------------------------------------------------------------------

 -------------------------------------------------------------------------------
 -                                                                             -
 -                                DBM STATISTICS                               -
 -                                                                             -
 -------------------------------------------------------------------------------
    M  x    N  x    K                                          COUNT     PERCENT
 -------------------------------------------------------------------------------

 -------------------------------------------------------------------------------
 -                                                                             -
 -                                GRID STATISTICS                              -
 -                                                                             -
 -------------------------------------------------------------------------------
 LP    KERNEL             BACKEND                              COUNT     PERCENT
 1     collocate ortho    CPU                                 246960      15.73%
 2     collocate ortho    CPU                                 200970      12.80%
 1     integrate ortho    CPU                                 197032      12.55%
 0     collocate ortho    CPU                                 171150      10.90%
 2     integrate ortho    CPU                                 164442      10.47%
 3     collocate ortho    CPU                                 135030       8.60%
 0     integrate ortho    CPU                                 132030       8.41%
 3     integrate ortho    CPU                                 111822       7.12%
 4     collocate ortho    CPU                                  57960       3.69%
 4     integrate ortho    CPU                                  49856       3.18%
 4     collocate general  CPU                                  20352       1.30%
 5     collocate ortho    CPU                                  17640       1.12%
 5     integrate ortho    CPU                                  15816       1.01%
 4     integrate general  CPU                                  15552       0.99%
 2     collocate general  CPU                                  13568       0.86%
 2     integrate general  CPU                                  10368       0.66%
 6     collocate ortho    CPU                                   4410       0.28%
 6     integrate ortho    CPU                                   4074       0.26%
 5     integrate general  CPU                                    384       0.02%
 3     integrate general  CPU                                    256       0.02%
 7     integrate ortho    CPU                                    168       0.01%
 0     collocate general  CPU                                    160       0.01%
 0     integrate general  CPU                                    160       0.01%
 -------------------------------------------------------------------------------

 MEMORY| Estimated peak process memory [MiB]                                1277

 -------------------------------------------------------------------------------
 ----                             MULTIGRID INFO                            ----
 -------------------------------------------------------------------------------
 count for grid        1:         109555          cutoff [a.u.]          200.00
 count for grid        2:          22508          cutoff [a.u.]           66.67
 count for grid        3:           8627          cutoff [a.u.]           22.22
 count for grid        4:           1858          cutoff [a.u.]            7.41
 total gridlevel count  :         142548

 -------------------------------------------------------------------------------
 -                                                                             -
 -                         MESSAGE PASSING PERFORMANCE                         -
 -                                                                             -
 -------------------------------------------------------------------------------

 ROUTINE             CALLS      AVE VOLUME [Bytes]
 MP_Group                5
 MP_Bcast             4869                 964598.
 MP_Allreduce        14578                 144387.
 MP_Sync              1399
 MP_Alltoall          4180               15034420.
 MP_SendRecv          9510                 233950.
 MP_ISendRecv        15765                 125952.
 MP_Wait             33417
 MP_comm_split          51
 MP_ISend            15207                 822513.
 MP_IRecv            15374                 813216.
 -------------------------------------------------------------------------------


 -------------------------------------------------------------------------------
 -                                                                             -
 -                           R E F E R E N C E S                               -
 -                                                                             -
 -------------------------------------------------------------------------------
 
 CP2K version 2024.1 (Development Version), the CP2K developers group (2024).
 CP2K is freely available from https://www.cp2k.org/ .

 Kuehne,Thomas D.; Iannuzzi,Marcella; Del Ben,Mauro;
 Rybkin,Vladimir V.; Seewald,Patrick; Stein,Frederick; Laino,Teodoro;
 Khaliullin,Rustam Z.; Schuett,Ole; Schiffmann,Florian; Golze,Dorothea;
 Wilhelm,Jan; Chulkov,Sergey; Bani-Hashemian,Mohammad Hossein;
 Weber,Valery; Borstnik,Urban; Taillefumier,Mathieu;
 Jakobovits,Alice Shoshana; Lazzaro,Alfio; Pabst,Hans; Mueller,Tiziano;
 Schade,Robert; Guidon,Manuel; Andermatt,Samuel; Holmberg,Nico;
 Schenter,Gregory K.; Hehn,Anna; Bussy,Augustin; Belleflamme,Fabian;
 Tabacchi,Gloria; Gloess,Andreas; Lass,Michael; Bethune,Iain;
 Mundy,Christopher J.; Plessl,Christian; Watkins,Matt;
 VandeVondele,Joost; Krack,Matthias; Hutter,Juerg. 
 The Journal of Chemical Physics, 152 (19), (2020). 
 CP2K: An electronic structure and molecular dynamics software package -
 Quickstep: Efficient and accurate electronic structure calculations.
 https://doi.org/10.1063/5.0007045

 Goerigk, Lars; Hansen, Andreas; Bauer, Christoph; Ehrlich, Stephan;
 Najibi, Asim; Grimme, Stefan. , 19 (48), (2017). 
 A look at the density functional theory zoo with the advanced GMTKN55 database
 for general main group thermochemistry, kinetics and noncovalent interactions.
 https://doi.org/10.1039/C7CP04913G

 Schuett, Ole; Messmer, Peter; Hutter, Juerg; VandeVondele, Joost. 
 Electronic Structure Calculations on Graphics Processing Units, John
 Wiley & Sons, Ltd, 173-190 (2016). 
 GPU-Accelerated Sparse Matrix-Matrix Multiplication for
 Linear Scaling Density Functional Theory.
 https://doi.org/10.1002/9781118670712.ch8

 Heinecke, A; Henry, G; Hutchinson, M; Pabst, H. 
 Proceedings of Intl. Supercomputing Conference, 981-991 (2016). 
 LIBXSMM: Accelerating Small Matrix Multiplications
 by Runtime Code Generation.
 https://doi.org/10.1109/SC.2016.83

 Borstnik, U; VandeVondele, J; Weber, V; Hutter, J. 
 PARALLEL COMPUTING, 40 (5-6), 47-58 (2014). 
 Sparse matrix multiplication: The distributed block-compressed sparse
 row library.
 https://doi.org/10.1016/j.parco.2014.03.012

 Hutter, J; Iannuzzi, M; Schiffmann, F; VandeVondele, J. 
 WIREs Comput Mol Sci., 4 (1), 15-25 (2014). 
 CP2K: atomistic simulations of condensed matter systems.
 https://doi.org/10.1002/wcms.1159

 Grimme, S; Ehrlich, S; Goerigk, L. 
 JOURNAL OF COMPUTATIONAL CHEMISTRY, 32, 1456 (2011). 
 Effect of the damping function in dispersion corrected density functional theory.
 https://doi.org/10.1002/jcc.21759

 Grimme, S; Antony, J; Ehrlich, S; Krieg, H. 
 JOURNAL OF CHEMICAL PHYSICS, 132 (15), 154104 (2010). 
 A consistent and accurate ab initio parametrization of density
 functional dispersion correction (DFT-D) for the 94 elements H-Pu.
 https://doi.org/10.1063/1.3382344

 Guidon, M; Hutter, J; VandeVondele, J. 
 JOURNAL OF CHEMICAL THEORY AND COMPUTATION, 5 (11), 3010-3021 (2009). 
 Robust Periodic Hartree-Fock Exchange for Large-Scale Simulations Using
 Gaussian Basis Sets.
 https://doi.org/10.1021/ct900494g

 Guidon, M; Schiffmann, F; Hutter, J; VandeVondele, J. 
 JOURNAL OF CHEMICAL PHYSICS, 128 (21), 214104 (2008). 
 Ab initio molecular dynamics using hybrid density functionals.
 https://doi.org/10.1063/1.2931945

 VandeVondele, J; Hutter, J. 
 JOURNAL OF CHEMICAL PHYSICS, 127 (11), 114105 (2007). 
 Gaussian basis sets for accurate calculations on molecular systems in
 gas and condensed phases.
 https://doi.org/10.1063/1.2770708

 Frigo, M; Johnson, SG. 
 PROCEEDINGS OF THE IEEE, 93 (2), 216-231 (2005). 
 The design and implementation of FFTW3.
 https://doi.org/10.1109/JPROC.2004.840301

 Iannuzzi, M; Chassaing, T; Wallman, T; Hutter, J. 
 CHIMIA, 59 (7-8), 499-503 (2005). 
 Ground and excited state density functional calculations with the
 Gaussian and augmented-plane-wave method.
 https://doi.org/10.2533/000942905777676164

 VandeVondele, J; Hutter, J. 
 JOURNAL OF CHEMICAL PHYSICS, 118 (10), 4365-4369 (2003). 
 An efficient orbital transformation method for electronic structure
 calculations.
 https://doi.org/10.1063/1.1543154

 Martin,Richard L.. 
 The Journal of Chemical Physics, 118 (11), 4775-4777 (2003). 
 Natural transition orbitals.
 https://doi.org/10.1063/1.1558471

 Lippert, G; Hutter, J; Parrinello, M. 
 THEORETICAL CHEMISTRY ACCOUNTS, 103 (2), 124-140 (1999). 
 The Gaussian and augmented-plane-wave density functional method for ab
 initio molecular dynamics simulations.
 https://doi.org/10.1007/s002140050523

 Krack, M; Parrinello, M. 
 PHYSICAL CHEMISTRY CHEMICAL PHYSICS, 2 (10), 2105-2112 (2000). 
 All-electron ab-initio molecular dynamics.
 https://doi.org/10.1039/b001167n

 Martyna, GJ; Tuckerman, ME. 
 JOURNAL OF CHEMICAL PHYSICS, 110 (6), 2810-2821 (1999). 
 A reciprocal space based method for treating long range interactions in
 ab initio and force-field-based calculations in clusters.
 https://doi.org/10.1063/1.477923

 BECKE, AD. PHYSICAL REVIEW A, 38 (6), 3098-3100 (1988). 
 DENSITY-FUNCTIONAL EXCHANGE-ENERGY APPROXIMATION WITH CORRECT
 ASYMPTOTIC-BEHAVIOR.
 https://doi.org/10.1103/PhysRevA.38.3098

 LEE, CT; YANG, WT; PARR, RG. 
 PHYSICAL REVIEW B, 37 (2), 785-789 (1988). 
 DEVELOPMENT OF THE COLLE-SALVETTI CORRELATION-ENERGY FORMULA INTO A
 FUNCTIONAL OF THE ELECTRON-DENSITY.
 https://doi.org/10.1103/PhysRevB.37.785

 VOSKO, SH; WILK, L; NUSAIR, M. 
 CANADIAN JOURNAL OF PHYSICS, 58 (8), 1200-1211 (1980). 
 ACCURATE SPIN-DEPENDENT ELECTRON LIQUID CORRELATION ENERGIES FOR LOCAL
 SPIN-DENSITY CALCULATIONS - A CRITICAL ANALYSIS.
 https://doi.org/10.1139/p80-159


 -------------------------------------------------------------------------------
 -                                                                             -
 -                                T I M I N G                                  -
 -                                                                             -
 -------------------------------------------------------------------------------
 SUBROUTINE                       CALLS  ASD         SELF TIME        TOTAL TIME
                                MAXIMUM       AVERAGE  MAXIMUM  AVERAGE  MAXIMUM
 CP2K                                 1  1.0    0.010    0.015  274.629  274.630
 qs_forces                            1  2.0    0.000    0.001  273.637  273.638
 qs_energies                          1  3.0    0.000    0.000  176.608  176.609
 qs_energies_properties               1  4.0    0.000    0.000  153.292  153.292
 tddfpt                               1  5.0    0.000    0.000  153.292  153.292
 tddfpt_energies                      1  6.0    0.000    0.000  116.089  116.090
 tddfpt_davidson_solver               2  7.0    0.002    0.003  115.347  115.347
 tddfpt_compute_Aop_evects           11  8.0    0.000    0.000  114.986  114.986
 excited_state_energy                 2  3.5    0.001    0.002   83.989   83.989
 fft_wrap_pw1pw2                   3780 12.1    0.041    0.049   73.066   77.387
 fft_wrap_pw1pw2_200               2639 13.4    2.214    2.333   70.739   75.028
 fhxc_kernel                         11  9.0    0.004    0.004   73.004   73.005
 response_equation                    1  4.0    0.000    0.000   62.666   62.666
 linres_solver                        1  5.0    0.001    0.003   62.632   62.632
 apply_op                            44  6.0    0.001    0.001   62.557   62.557
 integrate_four_center              264 10.6    0.057    0.060   60.204   60.214
 fft3d_ps                          3780 14.1   29.896   32.612   53.736   58.235
 integrate_four_center_main         264 11.6    0.023    0.031   55.120   57.085
 integrate_four_center_bin        25080 12.6   55.097   57.065   55.097   57.065
 derivatives_four_center              4  8.5    0.004    0.006   50.310   52.504
 derivatives_four_center_main         4  9.5    0.000    0.001   50.222   52.416
 derivatives_four_center_bin        416 10.5   46.777   51.295   46.777   51.295
 xc_pw_derive                      1374 12.4    0.011    0.012   40.976   42.995
 tddfpt_apply_hfx                    11  9.0    0.001    0.002   41.870   41.870
 tddft_hfx_matrix                   198 10.0    0.004    0.005   41.448   41.449
 tddfpt_forces_main                   1  6.0    0.000    0.000   37.124   37.124
 apply_op_2_dft                      43  7.0    0.003    0.003   36.626   36.673
 tddfpt_forces                        1  7.0    0.000    0.000   35.790   35.790
 tddfpt_force_direct                  1  8.0    0.000    0.000   35.182   35.182
 tddfpt_kernel_force                  1  9.0    0.000    0.000   35.170   35.171
 fhxc_force                           1 10.0    0.001    0.001   35.170   35.171
 prepare_gapw_den                   216  8.8    0.005    0.006   34.414   34.636
 rebuild_ks_matrix                   19  6.8    0.000    0.000   33.766   33.767
 qs_ks_build_kohn_sham_matrix        19  7.8    0.003    0.003   33.766   33.767
 xc_pw_divergence                   206 12.3    0.005    0.006   25.104   27.039
 calculate_rho_elec                 210  9.5    0.345    0.368   23.237   23.241
 tddfpt_apply_xc_analytic            99 10.0    1.152    1.282   23.082   23.213
 qs_rho_update_rho_low              205  8.6    0.002    0.002   23.191   23.193
 scf_env_do_scf                       1  4.0    0.000    0.000   23.110   23.110
 response_force                       1  4.0    0.005    0.007   21.321   21.321
 hfx_ks_matrix                       19  8.8    0.001    0.001   20.865   20.865
 qs_ks_update_qs_env                 20  6.0    0.000    0.000   20.785   20.785
 qs_fxc_analytic                     44  8.0    0.002    0.002   20.290   20.392
 calculate_rho0_atom                636  9.8   18.870   19.932   18.870   19.932
 xc_rho_set_and_dset_create         108 12.1    1.964    2.248   16.376   19.607
 xc_calc_2nd_deriv_analytical       752 11.1    1.581    1.744   18.856   19.309
 density_rs2pw                      210 10.5    0.008    0.009   18.104   18.949
 mp_alltoall_z22v                  3780 16.1   13.294   17.999   13.294   17.999
 yz_to_x                           1931 15.2    4.374    4.770   13.076   17.865
 scf_env_do_scf_inner_loop           18  5.0    0.000    0.001   17.321   17.321
 qs_vxc_create                       62 11.7    0.001    0.001   17.249   17.257
 xc_vxc_pw_create                    62 12.7    0.178    0.191   17.248   17.256
 integrate_v_rspace                 170  9.4    0.003    0.004   16.312   17.090
 xc_calc_2nd_deriv                   45  8.9    0.520    0.613   12.921   14.621
 tddfpt_apply_coulomb                99 10.0    0.002    0.002   12.182   13.561
 qs_ks_update_qs_env_forces           1  3.0    0.000    0.000   12.983   12.983
 x_to_yz                           1849 15.0    6.112    6.917   10.705   12.648
 potential_pw2rs                    170 10.4    0.017    0.018   11.138   11.920
 qs_fgxc_gdiff                        1 11.0    0.000    0.000   11.912   11.913
 qs_fxc_fdiff                         7 12.0    0.001    0.001   11.882   11.884
 put_rho0_on_grid                   212  9.8    0.387    0.441    9.733   10.005
 transfer_rs2pw                    1053 11.4    0.011    0.013    8.962    9.830
 xc_prep_2nd_deriv                   46  8.9    0.000    0.000    7.978    9.544
 apply_hfx                           43  7.0    0.001    0.001    9.101    9.108
 hfx_matrix                          43  8.0    0.001    0.001    9.097    9.104
 pw_gather_p                       1931 14.2    8.217    8.481    8.217    8.481
 transfer_rs2pw_200                 423 12.1    3.371    3.438    7.108    8.022
 integrate_vhg0_rspace              166  9.9    1.794    1.931    7.699    7.710
 transfer_pw2rs                     847 11.3    0.008    0.009    7.394    7.432
 pw_poisson_solve                   167  9.8    0.003    0.003    5.729    7.158
 xc_functional_eval                3200 11.9    0.004    0.008    3.754    6.906
 mp_sum_d                          2259  9.1    4.337    6.841    4.337    6.841
 pw_scatter_p                      1849 14.0    6.112    6.279    6.112    6.279
 grid_collocate_task_list           210 10.5    4.368    6.239    4.368    6.239
 mp_waitany                       15200 13.1    5.256    6.142    5.256    6.142
 init_scf_loop                        1  5.0    0.000    0.000    5.789    5.789
 transfer_pw2rs_200                 337 12.1    2.866    2.890    5.732    5.788
 -------------------------------------------------------------------------------

 The number of warnings for this run is : 0
 
 -------------------------------------------------------------------------------
  **** **** ******  **  PROGRAM ENDED AT                 2025-01-08 15:06:28.903
 ***** ** ***  *** **   PROGRAM RAN ON                               nesh-clk465
 **    ****   ******    PROGRAM RAN BY                                  suphc356
 ***** **    ** ** **   PROGRAM PROCESS ID                                404840
  **** **  *******  **  PROGRAM STOPPED IN /gxfs_work/cau/suphc356/NEWTONX_proje
                                           ct/Pyrazin_molecule/CP2K_GAPW_B3LYP_d
                                           ef2_TZVP/MOLDYN_BA_again/TRAJECTORIES
                                           /TRAJ148/TEMP
