 DBCSR| CPU Multiplication driver                                           XSMM (U)
 DBCSR| Multrec recursion limit                                              512 (U)
 DBCSR| Multiplication stack size                                           1000 (D)
 DBCSR| Maximum elements for images                                    UNLIMITED (U)
 DBCSR| Multiplicative factor virtual images                                   1 (U)
 DBCSR| Use multiplication densification                                       T (D)
 DBCSR| Multiplication size stacks                                             3 (U)
 DBCSR| Use memory pool for CPU allocation                                     F (U)
 DBCSR| Number of 3D layers                                               SINGLE (U)
 DBCSR| Use MPI memory allocation                                              F (U)
 DBCSR| Use RMA algorithm                                                      F (U)
 DBCSR| Use Communication thread                                               T (U)
 DBCSR| Communication thread load                                             83 (D)
 DBCSR| MPI: My process id                                                     0
 DBCSR| MPI: Number of processes                                              16
 DBCSR| OMP: Current number of threads                                         2
 DBCSR| OMP: Max number of threads                                             2
 DBCSR| Split modifier for TAS multiplication algorithm                  1.0E+00 (U)


  **** **** ******  **  PROGRAM STARTED AT               2024-10-23 17:29:45.036
 ***** ** ***  *** **   PROGRAM STARTED ON                           nesh-srp287
 **    ****   ******    PROGRAM STARTED BY                              suphc356
 ***** **    ** ** **   PROGRAM PROCESS ID                               2731949
  **** **  *******  **  PROGRAM STARTED IN /gxfs_work/cau/suphc356/NEWTONX_proje
                                           ct/Pyrazin_crystal/plain_pyrazine/CP2
                                           K_GPW_B3LYP_MOLOPT_TZVP/IC_TDDFT_agai
                                           n/JOB_AD

 CP2K| version string:                 CP2K version 2024.1 (Development Version)
 CP2K| source code revision number:                                  git:990486a
 CP2K| cp2kflags: omp libint fftw3 libxc libgrpp parallel mpi_f08 scalapack cosm
 CP2K|            a xsmm spglib mkl
 CP2K| is freely available from                            https://www.cp2k.org/
 CP2K| Program compiled at                          Mon Mar 11 08:48:45 CET 2024
 CP2K| Program compiled on                                           nesh-login2
 CP2K| Program compiled for                                                local
 CP2K| Data directory path                 /gxfs_work/cau/suphc356/cp2k_gcc/data
 CP2K| Input file name                                                  cp2k.inp

 GLOBAL| Force Environment number                                              1
 GLOBAL| Basis set file name                                        BASIS_MOLOPT
 GLOBAL| Potential file name                                           POTENTIAL
 GLOBAL| MM Potential file name                                     MM_POTENTIAL
 GLOBAL| Coordinate file name                                      __STD_INPUT__
 GLOBAL| Method name                                                        CP2K
 GLOBAL| Project name                                               testsuite_ad
 GLOBAL| Run type                                                   ENERGY_FORCE
 GLOBAL| FFT library                                                       FFTW3
 GLOBAL| Diagonalization library                                       ScaLAPACK
 GLOBAL| DGEMM library                                                      BLAS
 GLOBAL| Orthonormality check for eigenvectors                          DISABLED
 GLOBAL| Matrix multiplication library                                     COSMA
 GLOBAL| All-to-all communication in single precision                          F
 GLOBAL| FFTs using library dependent lengths                                  F
 GLOBAL| Grid backend                                                       AUTO
 GLOBAL| Global print level                                               MEDIUM
 GLOBAL| MPI I/O enabled                                                       T
 GLOBAL| Total number of message passing processes                            16
 GLOBAL| Number of threads for this process                                    2
 GLOBAL| This output is from process                                           0
 GLOBAL| Stack size for threads created by OpenMP (OMP_STACKSIZE)           256M
 GLOBAL| CPU model name                              Intel(R) Xeon(R) Gold 6426Y
 GLOBAL| CPUID                                                              1003
 GLOBAL| Compiled for CPUID                                                    0

 *** HINT in environment.F:920 :: The compiler target flags (generic) used ***
 *** to build this binary cannot exploit all extensions of this CPU model  ***
 *** (x86_avx512). Consider compiler target flags as part of FCFLAGS and   ***
 *** CFLAGS (ARCH file).                                                   ***


 MEMORY| system memory details [Kb]
 MEMORY|                        rank 0           min           max       average
 MEMORY| MemTotal            263786136     263786136     263786136     263786136
 MEMORY| MemFree             240590644     240590644     240590644     240590644
 MEMORY| Buffers               1200908       1200908       1200908       1200908
 MEMORY| Cached                5866060       5866060       5866060       5866060
 MEMORY| Slab                  1924828       1924828       1924828       1924828
 MEMORY| SReclaimable           404648        404648        404648        404648
 MEMORY| MemLikelyFree       248062260     248062260     248062260     248062260


 *** Fundamental physical constants (SI units) ***

 *** Literature: B. J. Mohr and B. N. Taylor,
 ***             CODATA recommended values of the fundamental physical
 ***             constants: 2006, Web Version 5.1
 ***             http://physics.nist.gov/constants

 Speed of light in vacuum [m/s]                             2.99792458000000E+08
 Magnetic constant or permeability of vacuum [N/A**2]       1.25663706143592E-06
 Electric constant or permittivity of vacuum [F/m]          8.85418781762039E-12
 Planck constant (h) [J*s]                                  6.62606896000000E-34
 Planck constant (h-bar) [J*s]                              1.05457162825177E-34
 Elementary charge [C]                                      1.60217648700000E-19
 Electron mass [kg]                                         9.10938215000000E-31
 Electron g factor [ ]                                     -2.00231930436220E+00
 Proton mass [kg]                                           1.67262163700000E-27
 Fine-structure constant                                    7.29735253760000E-03
 Rydberg constant [1/m]                                     1.09737315685270E+07
 Avogadro constant [1/mol]                                  6.02214179000000E+23
 Boltzmann constant [J/K]                                   1.38065040000000E-23
 Atomic mass unit [kg]                                      1.66053878200000E-27
 Bohr radius [m]                                            5.29177208590000E-11

 *** Conversion factors ***

 [u] -> [a.u.]                                              1.82288848426455E+03
 [Angstrom] -> [Bohr] = [a.u.]                              1.88972613288564E+00
 [a.u.] = [Bohr] -> [Angstrom]                              5.29177208590000E-01
 [a.u.] -> [s]                                              2.41888432650478E-17
 [a.u.] -> [fs]                                             2.41888432650478E-02
 [a.u.] -> [J]                                              4.35974393937059E-18
 [a.u.] -> [N]                                              8.23872205491840E-08
 [a.u.] -> [K]                                              3.15774647902944E+05
 [a.u.] -> [kJ/mol]                                         2.62549961709828E+03
 [a.u.] -> [kcal/mol]                                       6.27509468713739E+02
 [a.u.] -> [Pa]                                             2.94210107994716E+13
 [a.u.] -> [bar]                                            2.94210107994716E+08
 [a.u.] -> [atm]                                            2.90362800883016E+08
 [a.u.] -> [eV]                                             2.72113838565563E+01
 [a.u.] -> [Hz]                                             6.57968392072181E+15
 [a.u.] -> [1/cm] (wave numbers)                            2.19474631370540E+05
 [a.u./Bohr**2] -> [1/cm]                                   5.14048714338585E+03
 

 CELL_TOP| Volume [angstrom^3]:                                       424.784591
 CELL_TOP| Vector a [angstrom    11.252     0.000     0.000   |a| =    11.252000
 CELL_TOP| Vector b [angstrom     0.000     3.831     0.000   |b| =     3.831200
 CELL_TOP| Vector c [angstrom    -5.053     0.000     9.854   |c| =    11.074000
 CELL_TOP| Angle (b,c), alpha [degree]:                                90.000000
 CELL_TOP| Angle (a,c), beta  [degree]:                               117.150000
 CELL_TOP| Angle (a,b), gamma [degree]:                                90.000000
 CELL_TOP| Numerically orthorhombic:                                          NO
 CELL_TOP| Periodicity                                                       XYZ

 CELL| Volume [angstrom^3]:                                           424.784591
 CELL| Vector a [angstrom]:      11.252     0.000     0.000   |a| =    11.252000
 CELL| Vector b [angstrom]:       0.000     3.831     0.000   |b| =     3.831200
 CELL| Vector c [angstrom]:      -5.053     0.000     9.854   |c| =    11.074000
 CELL| Angle (b,c), alpha [degree]:                                    90.000000
 CELL| Angle (a,c), beta  [degree]:                                   117.150000
 CELL| Angle (a,b), gamma [degree]:                                    90.000000
 CELL| Numerically orthorhombic:                                              NO
 CELL| Periodicity                                                           XYZ

 CELL_REF| Volume [angstrom^3]:                                       424.784591
 CELL_REF| Vector a [angstrom    11.252     0.000     0.000   |a| =    11.252000
 CELL_REF| Vector b [angstrom     0.000     3.831     0.000   |b| =     3.831200
 CELL_REF| Vector c [angstrom    -5.053     0.000     9.854   |c| =    11.074000
 CELL_REF| Angle (b,c), alpha [degree]:                                90.000000
 CELL_REF| Angle (a,c), beta  [degree]:                               117.150000
 CELL_REF| Angle (a,b), gamma [degree]:                                90.000000
 CELL_REF| Numerically orthorhombic:                                          NO
 CELL_REF| Periodicity                                                       XYZ

 *******************************************************************************
 *******************************************************************************
 **                                                                           **
 **     #####                         ##              ##                      **
 **    ##   ##            ##          ##              ##                      **
 **   ##     ##                       ##            ######                    **
 **   ##     ##  ##   ##  ##   #####  ##  ##   ####   ##    #####    #####    **
 **   ##     ##  ##   ##  ##  ##      ## ##   ##      ##   ##   ##  ##   ##   **
 **   ##  ## ##  ##   ##  ##  ##      ####     ###    ##   ######   ######    **
 **    ##  ###   ##   ##  ##  ##      ## ##      ##   ##   ##       ##        **
 **     #######   #####   ##   #####  ##  ##  ####    ##    #####   ##        **
 **           ##                                                    ##        **
 **                                                                           **
 **                                                ... make the atoms dance   **
 **                                                                           **
 **            Copyright (C) by CP2K developers group (2000-2024)             **
 **                      J. Chem. Phys. 152, 194103 (2020)                    **
 **                                                                           **
 *******************************************************************************

 DFT| Spin restricted Kohn-Sham (RKS) calculation                            RKS
 DFT| Multiplicity                                                             1
 DFT| Number of spin states                                                    1
 DFT| Charge                                                                   0
 DFT| Self-interaction correction (SIC)                                       NO
 DFT| Cutoffs: density                                              1.000000E-10
 DFT|          gradient                                             1.000000E-10
 DFT|          tau                                                  1.000000E-10
 DFT|          cutoff_smoothing_range                               0.000000E+00
 DFT| XC density smoothing                                                  NONE
 DFT| XC derivatives                                                          PW

 FUNCTIONAL| BECKE88:
 FUNCTIONAL| A. Becke, Phys. Rev. A 38, 3098 (1988) {LDA version}               
 FUNCTIONAL| LYP:
 FUNCTIONAL| C. Lee, W. Yang, R.G. Parr, Phys. Rev. B, 37, 785 (1988) {LDA versi
 FUNCTIONAL| on}                                                                
 FUNCTIONAL| VWN:
 FUNCTIONAL| S. H. Vosko, L. Wilk and M. Nusair, Can. J. Phys. 58, 1200 (1980) {
 FUNCTIONAL| LDA version}                                                       
 FUNCTIONAL| XALPHA:
 FUNCTIONAL| Dirac/Slater local exchange; parameter=  0.666 {LDA}               

 vdW POTENTIAL|                                                   Pair Potential
 vdW POTENTIAL|          DFT-D3 (Version 3.1)
 vdW POTENTIAL|          Potential Form: S. Grimme et al, JCP 132: 154104 (2010)
 vdW POTENTIAL|          Zero Damping
 vdW POTENTIAL|          Cutoff Radius [Bohr]:                             18.90
 vdW POTENTIAL|          s6 Scaling Factor:                               1.0000
 vdW POTENTIAL|          sr6 Scaling Factor:                              1.2610
 vdW POTENTIAL|          s8 Scaling Factor:                               1.7030
 vdW POTENTIAL|          Cutoff for CN calculation:                   0.1000E-05

 QS| Method:                                                                 GPW
 QS| Density plane wave grid type                        NON-SPHERICAL FULLSPACE
 QS| Number of grid levels:                                                    4
 QS| Density cutoff [a.u.]:                                                400.0
 QS| Multi grid cutoff [a.u.]: 1) grid level                               400.0
 QS|                           2) grid level                               133.3
 QS|                           3) grid level                                44.4
 QS|                           4) grid level                                14.8
 QS| Grid level progression factor:                                          3.0
 QS| Relative density cutoff [a.u.]:                                        30.0
 QS| Interaction thresholds: eps_pgf_orb:                                3.2E-09
 QS|                         eps_filter_matrix:                          0.0E+00
 QS|                         eps_core_charge:                            1.0E-19
 QS|                         eps_rho_gspace:                             1.0E-17
 QS|                         eps_rho_rspace:                             1.0E-17
 QS|                         eps_gvg_rspace:                             3.2E-09
 QS|                         eps_ppl:                                    1.0E-02
 QS|                         eps_ppnl:                                   3.2E-11

 ADMM| Specific ADMM type specified                                         NONE
 ADMM| Density matrix purification method                                   NONE
 ADMM| Orbital projection on ADMM basis
 ADMM| eps_filter                                                0.000000000    
 ADMM| Exchange functional in correction term                               PBEX



 ATOMIC KIND INFORMATION

  1. Atomic kind: N                                     Number of atoms:       8

     Orbital Basis Set                                           TZVP-MOLOPT-GTH

       Number of orbital shell sets:                                           1
       Number of orbital shells:                                               7
       Number of primitive Cartesian functions:                                7
       Number of Cartesian basis functions:                                   18
       Number of spherical basis functions:                                   17
       Norm type:                                                              2

       Normalised Cartesian orbitals:

                        Set   Shell   Orbital            Exponent    Coefficient

                          1       1    2s                9.042730      -0.237404
                                                         3.882225      -0.265910
                                                         1.512880       0.102064
                                                         0.586631       0.295369
                                                         0.222851       0.088647
                                                         0.084583       0.003860
                                                         0.039194       0.000722

                          1       2    3s                9.042730       0.259152
                                                         3.882225       0.251432
                                                         1.512880      -0.043896
                                                         0.586631      -0.328079
                                                         0.222851       0.175857
                                                         0.084583       0.069169
                                                         0.039194       0.004207

                          1       3    4s                9.042730       0.330627
                                                         3.882225       0.738242
                                                         1.512880      -0.570149
                                                         0.586631       0.474918
                                                         0.222851       0.192885
                                                         0.084583      -0.214824
                                                         0.039194       0.031577

                          1       4    3px               9.042730       0.822162
                                                         3.882225       0.990771
                                                         1.512880       0.665657
                                                         0.586631       0.321705
                                                         0.222851       0.063706
                                                         0.084583       0.004155
                                                         0.039194      -0.000005
                          1       4    3py               9.042730       0.822162
                                                         3.882225       0.990771
                                                         1.512880       0.665657
                                                         0.586631       0.321705
                                                         0.222851       0.063706
                                                         0.084583       0.004155
                                                         0.039194      -0.000005
                          1       4    3pz               9.042730       0.822162
                                                         3.882225       0.990771
                                                         1.512880       0.665657
                                                         0.586631       0.321705
                                                         0.222851       0.063706
                                                         0.084583       0.004155
                                                         0.039194      -0.000005

                          1       5    4px               9.042730      -0.251449
                                                         3.882225      -0.215479
                                                         1.512880      -0.200519
                                                         0.586631      -0.125283
                                                         0.222851       0.136219
                                                         0.084583       0.034362
                                                         0.039194       0.000879
                          1       5    4py               9.042730      -0.251449
                                                         3.882225      -0.215479
                                                         1.512880      -0.200519
                                                         0.586631      -0.125283
                                                         0.222851       0.136219
                                                         0.084583       0.034362
                                                         0.039194       0.000879
                          1       5    4pz               9.042730      -0.251449
                                                         3.882225      -0.215479
                                                         1.512880      -0.200519
                                                         0.586631      -0.125283
                                                         0.222851       0.136219
                                                         0.084583       0.034362
                                                         0.039194       0.000879

                          1       6    5px               9.042730      -1.546561
                                                         3.882225       0.742834
                                                         1.512880      -1.783177
                                                         0.586631       0.969458
                                                         0.222851       0.077327
                                                         0.084583      -0.117711
                                                         0.039194       0.027593
                          1       6    5py               9.042730      -1.546561
                                                         3.882225       0.742834
                                                         1.512880      -1.783177
                                                         0.586631       0.969458
                                                         0.222851       0.077327
                                                         0.084583      -0.117711
                                                         0.039194       0.027593
                          1       6    5pz               9.042730      -1.546561
                                                         3.882225       0.742834
                                                         1.512880      -1.783177
                                                         0.586631       0.969458
                                                         0.222851       0.077327
                                                         0.084583      -0.117711
                                                         0.039194       0.027593

                          1       7    4dx2              9.042730       1.099742
                                                         3.882225       0.532064
                                                         1.512880       0.873643
                                                         0.586631       0.456348
                                                         0.222851       0.017840
                                                         0.084583      -0.000857
                                                         0.039194      -0.000086
                          1       7    4dxy              9.042730       1.904809
                                                         3.882225       0.921562
                                                         1.512880       1.513195
                                                         0.586631       0.790419
                                                         0.222851       0.030900
                                                         0.084583      -0.001484
                                                         0.039194      -0.000150
                          1       7    4dxz              9.042730       1.904809
                                                         3.882225       0.921562
                                                         1.512880       1.513195
                                                         0.586631       0.790419
                                                         0.222851       0.030900
                                                         0.084583      -0.001484
                                                         0.039194      -0.000150
                          1       7    4dy2              9.042730       1.099742
                                                         3.882225       0.532064
                                                         1.512880       0.873643
                                                         0.586631       0.456348
                                                         0.222851       0.017840
                                                         0.084583      -0.000857
                                                         0.039194      -0.000086
                          1       7    4dyz              9.042730       1.904809
                                                         3.882225       0.921562
                                                         1.512880       1.513195
                                                         0.586631       0.790419
                                                         0.222851       0.030900
                                                         0.084583      -0.001484
                                                         0.039194      -0.000150
                          1       7    4dz2              9.042730       1.099742
                                                         3.882225       0.532064
                                                         1.512880       0.873643
                                                         0.586631       0.456348
                                                         0.222851       0.017840
                                                         0.084583      -0.000857
                                                         0.039194      -0.000086

     Auxiliary Fit Basis Set                                         admm-tzp-q5

       Number of orbital shell sets:                                           7
       Number of orbital shells:                                               7
       Number of primitive Cartesian functions:                                9
       Number of Cartesian basis functions:                                   18
       Number of spherical basis functions:                                   17
       Norm type:                                                              2

       Normalised Cartesian orbitals:

                        Set   Shell   Orbital            Exponent    Coefficient

                          1       1    1s                6.213162      -0.926209
                                                         0.716616       0.618274

                          2       1    1s                0.318713       0.302315

                          3       1    1s                0.156356       0.177213

                          4       1    1px               6.434402      -5.795363
                                                         1.908664       3.868591
                          4       1    1py               6.434402      -5.795363
                                                         1.908664       3.868591
                          4       1    1pz               6.434402      -5.795363
                                                         1.908664       3.868591

                          5       1    1px               0.596798       0.747695
                          5       1    1py               0.596798       0.747695
                          5       1    1pz               0.596798       0.747695

                          6       1    1px               0.168824       0.154253
                          6       1    1py               0.168824       0.154253
                          6       1    1pz               0.168824       0.154253

                          7       1    1dx2              0.817000       1.155575
                          7       1    1dxy              0.817000       2.001514
                          7       1    1dxz              0.817000       2.001514
                          7       1    1dy2              0.817000       1.155575
                          7       1    1dyz              0.817000       2.001514
                          7       1    1dz2              0.817000       1.155575

       Atomic covalent radius [Angstrom]:                                  0.750

       Atomic van der Waals radius [Angstrom]:                             1.550

     GTH Potential information for                                    GTH-PBE-q5

       Description:                       Goedecker-Teter-Hutter pseudopotential
                                           Goedecker et al., PRB 54, 1703 (1996)
                                          Hartwigsen et al., PRB 58, 3641 (1998)
                                                      Krack, TCA 114, 145 (2005)

       Gaussian exponent of the core charge distribution:               6.208322
       Electronic configuration (s p d ...):                               2   3

       Parameters of the local part of the GTH pseudopotential:

                          rloc        C1          C2          C3          C4
                        0.283791  -12.415226    1.868096

       Parameters of the non-local part of the GTH pseudopotential:

                   l      r(l)      h(i,j,l)

                   0    0.255405   13.630263
                   1    0.245495

  2. Atomic kind: C                                     Number of atoms:      16

     Orbital Basis Set                                           TZVP-MOLOPT-GTH

       Number of orbital shell sets:                                           1
       Number of orbital shells:                                               7
       Number of primitive Cartesian functions:                                7
       Number of Cartesian basis functions:                                   18
       Number of spherical basis functions:                                   17
       Norm type:                                                              2

       Normalised Cartesian orbitals:

                        Set   Shell   Orbital            Exponent    Coefficient

                          1       1    2s                6.132625      -0.263661
                                                         2.625196      -0.231112
                                                         1.045457       0.042712
                                                         0.478316       0.306085
                                                         0.178617       0.065483
                                                         0.075145       0.000568
                                                         0.030287       0.000417

                          1       2    3s                6.132625       0.131937
                                                         2.625196       0.414269
                                                         1.045457      -0.593590
                                                         0.478316       0.644922
                                                         0.178617       0.069203
                                                         0.075145      -0.145101
                                                         0.030287       0.008247

                          1       3    4s                6.132625      -1.009391
                                                         2.625196      -0.608763
                                                         1.045457      -0.320627
                                                         0.478316       1.417678
                                                         0.178617      -0.917862
                                                         0.075145       0.286664
                                                         0.030287      -0.031483

                          1       4    3px               6.132625       0.562677
                                                         2.625196       0.633910
                                                         1.045457       0.379157
                                                         0.478316       0.235193
                                                         0.178617       0.052379
                                                         0.075145       0.003677
                                                         0.030287       0.000105
                          1       4    3py               6.132625       0.562677
                                                         2.625196       0.633910
                                                         1.045457       0.379157
                                                         0.478316       0.235193
                                                         0.178617       0.052379
                                                         0.075145       0.003677
                                                         0.030287       0.000105
                          1       4    3pz               6.132625       0.562677
                                                         2.625196       0.633910
                                                         1.045457       0.379157
                                                         0.478316       0.235193
                                                         0.178617       0.052379
                                                         0.075145       0.003677
                                                         0.030287       0.000105

                          1       5    4px               6.132625      -0.472364
                                                         2.625196      -0.221326
                                                         1.045457      -0.481781
                                                         0.478316       0.135466
                                                         0.178617       0.072281
                                                         0.075145       0.024920
                                                         0.030287       0.002706
                          1       5    4py               6.132625      -0.472364
                                                         2.625196      -0.221326
                                                         1.045457      -0.481781
                                                         0.478316       0.135466
                                                         0.178617       0.072281
                                                         0.075145       0.024920
                                                         0.030287       0.002706
                          1       5    4pz               6.132625      -0.472364
                                                         2.625196      -0.221326
                                                         1.045457      -0.481781
                                                         0.478316       0.135466
                                                         0.178617       0.072281
                                                         0.075145       0.024920
                                                         0.030287       0.002706

                          1       6    5px               6.132625      -0.321125
                                                         2.625196      -0.513960
                                                         1.045457      -0.659092
                                                         0.478316       1.236398
                                                         0.178617      -0.279443
                                                         0.075145       0.042466
                                                         0.030287      -0.008547
                          1       6    5py               6.132625      -0.321125
                                                         2.625196      -0.513960
                                                         1.045457      -0.659092
                                                         0.478316       1.236398
                                                         0.178617      -0.279443
                                                         0.075145       0.042466
                                                         0.030287      -0.008547
                          1       6    5pz               6.132625      -0.321125
                                                         2.625196      -0.513960
                                                         1.045457      -0.659092
                                                         0.478316       1.236398
                                                         0.178617      -0.279443
                                                         0.075145       0.042466
                                                         0.030287      -0.008547

                          1       7    4dx2              6.132625       0.874783
                                                         2.625196       0.375772
                                                         1.045457       0.653959
                                                         0.478316       0.191007
                                                         0.178617       0.018656
                                                         0.075145       0.003649
                                                         0.030287      -0.000011
                          1       7    4dxy              6.132625       1.515169
                                                         2.625196       0.650856
                                                         1.045457       1.132690
                                                         0.478316       0.330834
                                                         0.178617       0.032314
                                                         0.075145       0.006321
                                                         0.030287      -0.000019
                          1       7    4dxz              6.132625       1.515169
                                                         2.625196       0.650856
                                                         1.045457       1.132690
                                                         0.478316       0.330834
                                                         0.178617       0.032314
                                                         0.075145       0.006321
                                                         0.030287      -0.000019
                          1       7    4dy2              6.132625       0.874783
                                                         2.625196       0.375772
                                                         1.045457       0.653959
                                                         0.478316       0.191007
                                                         0.178617       0.018656
                                                         0.075145       0.003649
                                                         0.030287      -0.000011
                          1       7    4dyz              6.132625       1.515169
                                                         2.625196       0.650856
                                                         1.045457       1.132690
                                                         0.478316       0.330834
                                                         0.178617       0.032314
                                                         0.075145       0.006321
                                                         0.030287      -0.000019
                          1       7    4dz2              6.132625       0.874783
                                                         2.625196       0.375772
                                                         1.045457       0.653959
                                                         0.478316       0.191007
                                                         0.178617       0.018656
                                                         0.075145       0.003649
                                                         0.030287      -0.000011

     Auxiliary Fit Basis Set                                         admm-tzp-q4

       Number of orbital shell sets:                                           7
       Number of orbital shells:                                               7
       Number of primitive Cartesian functions:                                9
       Number of Cartesian basis functions:                                   18
       Number of spherical basis functions:                                   17
       Norm type:                                                              2

       Normalised Cartesian orbitals:

                        Set   Shell   Orbital            Exponent    Coefficient

                          1       1    1s                8.477503       0.595236
                                                         3.577003       1.575378

                          2       1    1s                0.495726       0.421057

                          3       1    1s                0.159172       0.179601

                          4       1    1px               4.986355       0.952283
                                                         1.664384       2.520356
                          4       1    1py               4.986355       0.952283
                                                         1.664384       2.520356
                          4       1    1pz               4.986355       0.952283
                                                         1.664384       2.520356

                          5       1    1px               0.555716       0.683921
                          5       1    1py               0.555716       0.683921
                          5       1    1pz               0.555716       0.683921

                          6       1    1px               0.158157       0.142168
                          6       1    1py               0.158157       0.142168
                          6       1    1pz               0.158157       0.142168

                          7       1    1dx2              0.550000       0.578155
                          7       1    1dxy              0.550000       1.001394
                          7       1    1dxz              0.550000       1.001394
                          7       1    1dy2              0.550000       0.578155
                          7       1    1dyz              0.550000       1.001394
                          7       1    1dz2              0.550000       0.578155

       Atomic covalent radius [Angstrom]:                                  0.770

       Atomic van der Waals radius [Angstrom]:                             1.700

     GTH Potential information for                                    GTH-PBE-q4

       Description:                       Goedecker-Teter-Hutter pseudopotential
                                           Goedecker et al., PRB 54, 1703 (1996)
                                          Hartwigsen et al., PRB 58, 3641 (1998)
                                                      Krack, TCA 114, 145 (2005)

       Gaussian exponent of the core charge distribution:               4.364419
       Electronic configuration (s p d ...):                               2   2

       Parameters of the local part of the GTH pseudopotential:

                          rloc        C1          C2          C3          C4
                        0.338471   -8.803674    1.339211

       Parameters of the non-local part of the GTH pseudopotential:

                   l      r(l)      h(i,j,l)

                   0    0.302576    9.622487
                   1    0.291507

  3. Atomic kind: H                                     Number of atoms:      16

     Orbital Basis Set                                           TZVP-MOLOPT-GTH

       Number of orbital shell sets:                                           1
       Number of orbital shells:                                               4
       Number of primitive Cartesian functions:                                7
       Number of Cartesian basis functions:                                    6
       Number of spherical basis functions:                                    6
       Norm type:                                                              2

       Normalised Cartesian orbitals:

                        Set   Shell   Orbital            Exponent    Coefficient

                          1       1    2s               11.478000       0.129129
                                                         3.700759       0.177012
                                                         1.446884       0.141285
                                                         0.716815       0.245670
                                                         0.247919       0.094768
                                                         0.066918       0.004062
                                                         0.021708      -0.000053

                          1       2    3s               11.478000      -0.079256
                                                         3.700759      -0.152992
                                                         1.446884       0.015066
                                                         0.716815      -0.331234
                                                         0.247919       0.210690
                                                         0.066918       0.058630
                                                         0.021708      -0.003429

                          1       3    4s               11.478000      -0.246880
                                                         3.700759       0.023016
                                                         1.446884      -1.109374
                                                         0.716815       1.524652
                                                         0.247919      -0.227968
                                                         0.066918      -0.037343
                                                         0.021708       0.005696

                          1       4    3px              11.478000       0.325290
                                                         3.700759       0.187466
                                                         1.446884       0.443300
                                                         0.716815       0.267738
                                                         0.247919       0.088285
                                                         0.066918       0.019092
                                                         0.021708       0.000629
                          1       4    3py              11.478000       0.325290
                                                         3.700759       0.187466
                                                         1.446884       0.443300
                                                         0.716815       0.267738
                                                         0.247919       0.088285
                                                         0.066918       0.019092
                                                         0.021708       0.000629
                          1       4    3pz              11.478000       0.325290
                                                         3.700759       0.187466
                                                         1.446884       0.443300
                                                         0.716815       0.267738
                                                         0.247919       0.088285
                                                         0.066918       0.019092
                                                         0.021708       0.000629

     Auxiliary Fit Basis Set                                         admm-tzp-q1

       Number of orbital shell sets:                                           4
       Number of orbital shells:                                               4
       Number of primitive Cartesian functions:                                5
       Number of Cartesian basis functions:                                    6
       Number of spherical basis functions:                                    6
       Norm type:                                                              2

       Normalised Cartesian orbitals:

                        Set   Shell   Orbital            Exponent    Coefficient

                          1       1    1s                9.284181       0.722156
                                                         2.188955       1.100335

                          2       1    1s                0.569305       0.467109

                          3       1    1s                0.136639       0.160173

                          4       1    1px               0.727000       0.956881
                          4       1    1py               0.727000       0.956881
                          4       1    1pz               0.727000       0.956881

       Atomic covalent radius [Angstrom]:                                  0.320

       Atomic van der Waals radius [Angstrom]:                             1.090

     GTH Potential information for                                    GTH-PBE-q1

       Description:                       Goedecker-Teter-Hutter pseudopotential
                                           Goedecker et al., PRB 54, 1703 (1996)
                                          Hartwigsen et al., PRB 58, 3641 (1998)
                                                      Krack, TCA 114, 145 (2005)

       Gaussian exponent of the core charge distribution:              12.500000
       Electronic configuration (s p d ...):                                   1

       Parameters of the local part of the GTH pseudopotential:

                          rloc        C1          C2          C3          C4
                        0.200000   -4.178900    0.724463


 MOLECULE KIND INFORMATION


 All atoms are their own molecule, skipping detailed information


 TOTAL NUMBERS AND MAXIMUM NUMBERS

  Total number of            - Atomic kinds:                                   3
                             - Atoms:                                         40
                             - Shell sets:                                    40
                             - Shells:                                       232
                             - Primitive Cartesian functions:                280
                             - Cartesian basis functions:                    528
                             - Spherical basis functions:                    504

  Maximum angular momentum of- Orbital basis functions:                        2
                             - Local part of the GTH pseudopotential:          2
                             - Non-local part of the GTH pseudopotential:      0

  AUX_FIT ADMM-Basis: 
  Total number of            - Shell sets:                                   232
                             - Shells:                                       232
                             - Primitive Cartesian functions:                296
                             - Cartesian basis functions:                    528
                             - Spherical basis functions:                    504
                               Maximum angular momentum                        2


 MODULE QUICKSTEP: ATOMIC COORDINATES IN ANGSTROM

   Atom Kind Element         X             Y             Z       Z(eff)     Mass
      1    1 N     7     -0.033483      0.139883      1.336772   5.0000  14.0067
      2    2 C     6      0.613751      0.993648      0.556457   4.0000  12.0107
      3    3 H     1      1.202528      1.756416      1.033801   1.0000   1.0079
      4    2 C     6     -0.752374     -0.746168      0.668714   4.0000  12.0107
      5    3 H     1     -1.297698     -1.469752      1.248547   1.0000   1.0079
      6    1 N     7      4.532600      1.833357      0.838489   5.0000  14.0067
      7    2 C     6      5.510215      0.958928      1.026491   4.0000  12.0107
      8    3 H     1      5.363072      0.215857      1.789600   1.0000   1.0079
      9    2 C     6      4.782687      2.708426     -0.122670   4.0000  12.0107
     10    3 H     1      4.041741      3.465002     -0.305746   1.0000   1.0079
     11    1 N     7     -2.713164      1.998439      3.430338   5.0000  14.0067
     12    2 C     6     -3.331838      2.872820      4.207964   4.0000  12.0107
     13    3 H     1     -3.940391      3.620658      3.732941   1.0000   1.0079
     14    2 C     6     -1.972636      1.126743      4.098716   4.0000  12.0107
     15    3 H     1     -1.445358      0.387791      3.522143   1.0000   1.0079
     16    1 N     7     -6.917303      3.808812      4.222012   5.0000  14.0067
     17    2 C     6     -7.892051      2.933330      4.027514   4.0000  12.0107
     18    3 H     1     -7.739533      2.194183      3.260849   1.0000   1.0079
     19    2 C     6     -7.170662      4.681362      5.184438   4.0000  12.0107
     20    3 H     1     -6.429974      5.435501      5.378066   1.0000   1.0079
     21    1 N     7     -0.148987      0.050938     -1.501066   5.0000  14.0067
     22    2 C     6     -0.803928     -0.798134     -0.719928   4.0000  12.0107
     23    3 H     1     -1.408057     -1.552132     -1.192226   1.0000   1.0079
     24    2 C     6      0.563872      0.941966     -0.834462   4.0000  12.0107
     25    3 H     1      1.104197      1.668868     -1.414510   1.0000   1.0079
     26    1 N     7     -4.316819     -1.991383     -0.681622   5.0000  14.0067
     27    2 C     6     -5.295626     -1.118401     -0.872211   4.0000  12.0107
     28    3 H     1     -5.153558     -0.379025     -1.640265   1.0000   1.0079
     29    2 C     6     -4.564603     -2.864069      0.282137   4.0000  12.0107
     30    3 H     1     -3.818609     -3.613667      0.473846   1.0000   1.0079
     31    1 N     7      2.570220     -1.830922     -3.589462   5.0000  14.0067
     32    2 C     6      3.192581     -2.702798     -4.366811   4.0000  12.0107
     33    3 H     1      3.798175     -3.451883     -3.888888   1.0000   1.0079
     34    2 C     6      1.831983     -0.958014     -4.258583   4.0000  12.0107
     35    3 H     1      1.303344     -0.219677     -3.682580   1.0000   1.0079
     36    1 N     7      6.982838     -3.862041     -4.118375   5.0000  14.0067
     37    2 C     6      7.957253     -2.986217     -3.925839   4.0000  12.0107
     38    3 H     1      7.806994     -2.247054     -3.159677   1.0000   1.0079
     39    2 C     6      7.236167     -4.735015     -5.081220   4.0000  12.0107
     40    3 H     1      6.496647     -5.491499     -5.270996   1.0000   1.0079



 SCF PARAMETERS         Density guess:                                   RESTART
                        --------------------------------------------------------
                        max_scf:                                              50
                        max_scf_history:                                       0
                        max_diis:                                              4
                        --------------------------------------------------------
                        eps_scf:                                        1.00E-09
                        eps_scf_history:                                0.00E+00
                        eps_diis:                                       1.00E-01
                        eps_eigval:                                     1.00E-05
                        --------------------------------------------------------
                        level_shift [a.u.]:                             0.000000
                        --------------------------------------------------------
                        Outer loop SCF in use 
                        No variables optimised in outer loop
                        eps_scf                                         1.00E-09
                        max_scf                                              900
                        No outer loop optimization
                        step_size                                       5.00E-01

 PW_GRID| Information for grid number                                          1
 PW_GRID| Grid distributed over                                    16 processors
 PW_GRID| Real space group dimensions                                    16    1
 PW_GRID| the grid is blocked:                                                NO
 PW_GRID| Cutoff [a.u.]                                                    400.0
 PW_GRID| spherical cutoff:                                                   NO
 PW_GRID|   Bounds   1            -96      95                Points:         192
 PW_GRID|   Bounds   2            -36      35                Points:          72
 PW_GRID|   Bounds   3            -96      95                Points:         192
 PW_GRID| Volume element (a.u.^3)  0.1080E-02     Volume (a.u.^3)      2866.5885
 PW_GRID| Grid span                                                    FULLSPACE
 PW_GRID|   Distribution                         Average         Max         Min
 PW_GRID|   G-Vectors                           165888.0      165888      165888
 PW_GRID|   G-Rays                                 864.0         864         864
 PW_GRID|   Real Space Points                   165888.0      165888      165888

 PW_GRID| Information for grid number                                          2
 PW_GRID| Number of the reference grid                                         1
 PW_GRID| Grid distributed over                                    16 processors
 PW_GRID| Real space group dimensions                                    16    1
 PW_GRID| the grid is blocked:                                                NO
 PW_GRID| Cutoff [a.u.]                                                    133.3
 PW_GRID| spherical cutoff:                                                   NO
 PW_GRID|   Bounds   1            -60      59                Points:         120
 PW_GRID|   Bounds   2            -20      19                Points:          40
 PW_GRID|   Bounds   3            -60      59                Points:         120
 PW_GRID| Volume element (a.u.^3)  0.4977E-02     Volume (a.u.^3)      2866.5885
 PW_GRID| Grid span                                                    FULLSPACE
 PW_GRID|   Distribution                         Average         Max         Min
 PW_GRID|   G-Vectors                            36000.0       36840       35400
 PW_GRID|   G-Rays                                 300.0         307         295
 PW_GRID|   Real Space Points                    36000.0       38400       33600

 PW_GRID| Information for grid number                                          3
 PW_GRID| Number of the reference grid                                         1
 PW_GRID| Grid distributed over                                    16 processors
 PW_GRID| Real space group dimensions                                    16    1
 PW_GRID| the grid is blocked:                                                NO
 PW_GRID| Cutoff [a.u.]                                                     44.4
 PW_GRID| spherical cutoff:                                                   NO
 PW_GRID|   Bounds   1            -32      31                Points:          64
 PW_GRID|   Bounds   2            -12      11                Points:          24
 PW_GRID|   Bounds   3            -32      31                Points:          64
 PW_GRID| Volume element (a.u.^3)  0.2916E-01     Volume (a.u.^3)      2866.5885
 PW_GRID| Grid span                                                    FULLSPACE
 PW_GRID|   Distribution                         Average         Max         Min
 PW_GRID|   G-Vectors                             6144.0        6464        5760
 PW_GRID|   G-Rays                                  96.0         101          90
 PW_GRID|   Real Space Points                     6144.0        6144        6144

 PW_GRID| Information for grid number                                          4
 PW_GRID| Number of the reference grid                                         1
 PW_GRID| Grid distributed over                                    16 processors
 PW_GRID| Real space group dimensions                                    16    1
 PW_GRID| the grid is blocked:                                                NO
 PW_GRID| Cutoff [a.u.]                                                     14.8
 PW_GRID| spherical cutoff:                                                   NO
 PW_GRID|   Bounds   1            -20      19                Points:          40
 PW_GRID|   Bounds   2             -7       7                Points:          15
 PW_GRID|   Bounds   3            -20      19                Points:          40
 PW_GRID| Volume element (a.u.^3)  0.1194         Volume (a.u.^3)      2866.5885
 PW_GRID| Grid span                                                    FULLSPACE
 PW_GRID|   Distribution                         Average         Max         Min
 PW_GRID|   G-Vectors                             1500.0        1640        1400
 PW_GRID|   G-Rays                                  37.5          41          35
 PW_GRID|   Real Space Points                     1500.0        1800        1200

 POISSON| Solver                                                        PERIODIC
 POISSON| Periodicity                                                        XYZ

 RS_GRID| Information for grid number                                          1
 RS_GRID|   Bounds   1            -96      95                Points:         192
 RS_GRID|   Bounds   2            -36      35                Points:          72
 RS_GRID|   Bounds   3            -96      95                Points:         192
 RS_GRID| Real space fully replicated
 RS_GRID| Group size                                                           1

 RS_GRID| Information for grid number                                          2
 RS_GRID|   Bounds   1            -60      59                Points:         120
 RS_GRID|   Bounds   2            -20      19                Points:          40
 RS_GRID|   Bounds   3            -60      59                Points:         120
 RS_GRID| Real space fully replicated
 RS_GRID| Group size                                                           1

 RS_GRID| Information for grid number                                          3
 RS_GRID|   Bounds   1            -32      31                Points:          64
 RS_GRID|   Bounds   2            -12      11                Points:          24
 RS_GRID|   Bounds   3            -32      31                Points:          64
 RS_GRID| Real space fully replicated
 RS_GRID| Group size                                                           1

 RS_GRID| Information for grid number                                          4
 RS_GRID|   Bounds   1            -20      19                Points:          40
 RS_GRID|   Bounds   2             -7       7                Points:          15
 RS_GRID|   Bounds   3            -20      19                Points:          40
 RS_GRID| Real space fully replicated
 RS_GRID| Group size                                                           1

 Number of electrons:                                                        120
 Number of occupied orbitals:                                                 60
 Number of molecular orbitals:                                                60

 Number of orbital functions:                                                504
 Number of independent orbital functions:                                    504

 Extrapolation method: initial_guess

 *** WARNING in qs_initial_guess.F:306 :: User requested to restart the    ***
 *** wavefunction from the file named: testsuite_ad-RESTART.wfn. This file ***
 *** does not exist. Please check the existence of the file or change      ***
 *** properly the value of the keyword WFN_RESTART_FILE_NAME. Calculation  ***
 *** continues using ATOMIC GUESS.                                         ***


 Atomic guess: The first density matrix is obtained in terms of atomic orbitals
               and electronic configurations assigned to each atomic kind

 Guess for atomic kind: N

 Electronic structure
    Total number of core electrons                                          2.00
    Total number of valence electrons                                       5.00
    Total number of electrons                                               7.00
    Multiplicity                                                   not specified
    S   [  2.00] 2.00
    P      3.00


 *******************************************************************************
                  Iteration          Convergence                     Energy [au]
 *******************************************************************************
                          1        0.286634                      -9.511206244233
                          2        0.226136                      -9.521008071593
                          3        0.334941E-02                  -9.546227953912
                          4        0.319255E-03                  -9.546232857587
                          5        0.231075E-05                  -9.546232901719
                          6        0.107038E-05                  -9.546232901721
                          7        0.383401E-08                  -9.546232901721

 Energy components [Hartree]           Total Energy ::           -9.546232901721
                                        Band Energy ::           -2.058537546162
                                     Kinetic Energy ::            6.757650655055
                                   Potential Energy ::          -16.303883556777
                                      Virial (-V/T) ::            2.412655579433
                                        Core Energy ::          -15.539824007853
                                          XC Energy ::           -2.162245692268
                                     Coulomb Energy ::            8.155836798399
                       Total Pseudopotential Energy ::          -22.334860094811
                       Local Pseudopotential Energy ::          -23.272667011764
                    Nonlocal Pseudopotential Energy ::            0.937806916952
                                        Confinement ::            0.373854319030

 Orbital energies  State     L     Occupation   Energy[a.u.]          Energy[eV]

                       1     0          2.000      -0.664192          -18.073575

                       1     1          3.000      -0.243385           -6.622835


 Total Electron Density at R=0:                                         0.000041

 Guess for atomic kind: C

 Electronic structure
    Total number of core electrons                                          2.00
    Total number of valence electrons                                       4.00
    Total number of electrons                                               6.00
    Multiplicity                                                   not specified
    S   [  2.00] 2.00
    P      2.00


 *******************************************************************************
                  Iteration          Convergence                     Energy [au]
 *******************************************************************************
                          1        0.106529                      -5.270272483724
                          2        0.700070E-01                  -5.275253796046
                          3        0.257977E-03                  -5.278907327451
                          4        0.489006E-04                  -5.278907347137
                          5        0.128506E-06                  -5.278907348859

 Energy components [Hartree]           Total Energy ::           -5.278907348859
                                        Band Energy ::           -1.297504853112
                                     Kinetic Energy ::            3.437573111169
                                   Potential Energy ::           -8.716480460029
                                      Virial (-V/T) ::            2.535649476576
                                        Core Energy ::           -8.301868323195
                                          XC Energy ::           -1.382083082551
                                     Coulomb Energy ::            4.405044056886
                       Total Pseudopotential Energy ::          -11.773288188248
                       Local Pseudopotential Energy ::          -12.379139771298
                    Nonlocal Pseudopotential Energy ::            0.605851583050
                                        Confinement ::            0.338467538844

 Orbital energies  State     L     Occupation   Energy[a.u.]          Energy[eV]

                       1     0          2.000      -0.478379          -13.017346

                       1     1          2.000      -0.170374           -4.636105


 Total Electron Density at R=0:                                         0.000341

 Guess for atomic kind: H

 Electronic structure
    Total number of core electrons                                          0.00
    Total number of valence electrons                                       1.00
    Total number of electrons                                               1.00
    Multiplicity                                                   not specified
    S      1.00


 *******************************************************************************
                  Iteration          Convergence                     Energy [au]
 *******************************************************************************
                          1        0.363633E-02                  -0.424359639014
                          2        0.457201E-03                  -0.424374328003
                          3        0.158035E-04                  -0.424374562686
                          4        0.544881E-08                  -0.424374562963

 Energy components [Hartree]           Total Energy ::           -0.424374562963
                                        Band Energy ::           -0.197817388557
                                     Kinetic Energy ::            0.463739149097
                                   Potential Energy ::           -0.888113712060
                                      Virial (-V/T) ::            1.915114809241
                                        Core Energy ::           -0.479953896523
                                          XC Energy ::           -0.245504363650
                                     Coulomb Energy ::            0.301083697210
                       Total Pseudopotential Energy ::           -0.962570132454
                       Local Pseudopotential Energy ::           -0.962570132454
                    Nonlocal Pseudopotential Energy ::            0.000000000000
                                        Confinement ::            0.188770868335

 Orbital energies  State     L     Occupation   Energy[a.u.]          Energy[eV]

                       1     0          1.000      -0.197817           -5.382885


 Total Electron Density at R=0:                                         0.235042
 Re-scaling the density matrix to get the right number of electrons
                  # Electrons              Trace(P)               Scaling factor
                          120               120.351                        0.997


 SCF WAVEFUNCTION OPTIMIZATION

  ----------------------------------- OT ---------------------------------------
  Minimizer      : DIIS                : direct inversion
                                         in the iterative subspace
                                         using   7 DIIS vectors
                                         safer DIIS on
  Preconditioner : FULL_ALL            : diagonalization, state selective
  Precond_solver : DEFAULT
  stepsize       :    0.15000000                  energy_gap     :    0.08000000
  eps_taylor     :   0.10000E-15                  max_taylor     :             4
  ----------------------------------- OT ---------------------------------------

  Step     Update method      Time    Convergence         Total energy    Change
  ------------------------------------------------------------------------------
     1 OT DIIS     0.15E+00   36.4     0.08013650      -165.4531602293 -1.65E+02
     2 OT DIIS     0.15E+00   26.8     0.14309371      -166.2477037561 -7.95E-01
     3 OT DIIS     0.15E+00   26.8     0.05402701      -173.4851146943 -7.24E+00
     4 OT DIIS     0.15E+00   26.8     0.05156974      -176.0179282687 -2.53E+00
     5 OT DIIS     0.15E+00   26.8     0.01912090      -177.5716858150 -1.55E+00
     6 OT DIIS     0.15E+00   26.9     0.01670668      -178.1118085728 -5.40E-01
     7 OT DIIS     0.15E+00   26.8     0.01282221      -178.4223433021 -3.11E-01
     8 OT DIIS     0.15E+00   26.8     0.00849425      -178.6444356215 -2.22E-01
     9 OT DIIS     0.15E+00   26.8     0.00643990      -178.7971669231 -1.53E-01
    10 OT DIIS     0.15E+00   26.8     0.00530684      -178.8634611575 -6.63E-02
    11 OT DIIS     0.15E+00   26.8     0.00427105      -178.9327948608 -6.93E-02
    12 OT DIIS     0.15E+00   26.8     0.00401206      -178.9738970553 -4.11E-02
    13 OT DIIS     0.15E+00   26.8     0.00398929      -179.0093086361 -3.54E-02
    14 OT SD       0.15E+00   26.7     0.00410757      -179.0243617168 -1.51E-02
    15 OT SD       0.15E+00   26.7     0.00407903      -179.0958907623 -7.15E-02
    16 OT SD       0.15E+00   26.7     0.00471248      -179.1533515865 -5.75E-02
    17 OT DIIS     0.15E+00   26.8     0.00852041      -179.1660746768 -1.27E-02
    18 OT DIIS     0.15E+00   26.8     0.00552545      -179.1416944204  2.44E-02
    19 OT DIIS     0.15E+00   26.8     0.00435742      -179.2125393390 -7.08E-02
    20 OT DIIS     0.15E+00   26.7     0.00334987      -179.2432915708 -3.08E-02
    21 OT DIIS     0.15E+00   26.7     0.00331311      -179.2661962797 -2.29E-02
    22 OT DIIS     0.15E+00   26.8     0.00438082      -179.2793288514 -1.31E-02
    23 OT DIIS     0.15E+00   26.8     0.00214091      -179.2890921912 -9.76E-03
    24 OT DIIS     0.15E+00   26.8     0.00194624      -179.2927264800 -3.63E-03
    25 OT DIIS     0.15E+00   26.8     0.00165025      -179.3034678487 -1.07E-02
    26 OT DIIS     0.15E+00   26.8     0.00114169      -179.3157330106 -1.23E-02
    27 OT DIIS     0.15E+00   26.7     0.00091800      -179.3212524690 -5.52E-03
    28 OT DIIS     0.15E+00   26.8     0.00072080      -179.3236802335 -2.43E-03
    29 OT DIIS     0.15E+00   26.8     0.00053437      -179.3255678743 -1.89E-03
    30 OT DIIS     0.15E+00   26.8     0.00046222      -179.3272315118 -1.66E-03
    31 OT DIIS     0.15E+00   26.7     0.00038536      -179.3282051489 -9.74E-04
    32 OT DIIS     0.15E+00   26.8     0.00035490      -179.3288631089 -6.58E-04
    33 OT DIIS     0.15E+00   26.8     0.00026878      -179.3295618899 -6.99E-04
    34 OT DIIS     0.15E+00   26.7     0.00023674      -179.3298286305 -2.67E-04
    35 OT DIIS     0.15E+00   26.7     0.00020175      -179.3301334855 -3.05E-04
    36 OT DIIS     0.15E+00   26.7     0.00019824      -179.3302358869 -1.02E-04
    37 OT DIIS     0.15E+00   26.7     0.00015851      -179.3303645810 -1.29E-04
    38 OT DIIS     0.15E+00   26.8     0.00014327      -179.3305995790 -2.35E-04
    39 OT DIIS     0.15E+00   26.7     0.00012897      -179.3306016753 -2.10E-06
    40 OT DIIS     0.15E+00   26.7     0.00012048      -179.3306991781 -9.75E-05
    41 OT DIIS     0.15E+00   26.7     0.00010244      -179.3307640236 -6.48E-05
    42 OT DIIS     0.15E+00   26.7     0.00009808      -179.3308170412 -5.30E-05
    43 OT DIIS     0.15E+00   26.8     0.00009129      -179.3309057776 -8.87E-05
    44 OT DIIS     0.15E+00   26.7     0.00009176      -179.3309659337 -6.02E-05
    45 OT DIIS     0.15E+00   26.8     0.00008147      -179.3310092785 -4.33E-05
    46 OT DIIS     0.15E+00   26.7     0.00007094      -179.3311118612 -1.03E-04
    47 OT DIIS     0.15E+00   26.7     0.00007602      -179.3311222778 -1.04E-05
    48 OT DIIS     0.15E+00   26.8     0.00006616      -179.3311832587 -6.10E-05
    49 OT DIIS     0.15E+00   26.7     0.00005758      -179.3312081275 -2.49E-05
    50 OT DIIS     0.15E+00   26.7     0.00005363      -179.3312300063 -2.19E-05

  Leaving inner SCF loop after reaching    50 steps.


  Electronic density on regular grids:       -120.0000000000       -0.0000000000
  Core density on regular grids:              120.0000000000        0.0000000000
  Total charge density on r-space grids:       -0.0000000000
  Total charge density g-space grids:          -0.0000000000

  Overlap energy of the core charge distribution:               0.00001120448048
  Self energy of the core charge distribution:               -434.73266088811687
  Core Hamiltonian energy:                                    134.48546461777926
  Hartree energy:                                             174.55701115173170
  Exchange-correlation energy:                                -43.95024038660694
  Hartree-Fock Exchange energy:                                -9.58166586777096
  Dispersion energy:                                           -0.10914983776993

  Total energy:                                              -179.33123000627327

  outer SCF iter =    1 RMS gradient =   0.54E-04 energy =       -179.3312300063

  ----------------------------------- OT ---------------------------------------
  Minimizer      : DIIS                : direct inversion
                                         in the iterative subspace
                                         using   7 DIIS vectors
[...]
  Core density on regular grids:              120.0000000000        0.0000000000
  Total charge density on r-space grids:       -0.0000000000
  Total charge density g-space grids:          -0.0000000000

  Overlap energy of the core charge distribution:               0.00001120448048
  Self energy of the core charge distribution:               -434.73266088811687
  Core Hamiltonian energy:                                    134.48546461777926
  Hartree energy:                                             174.55701115173193
  Exchange-correlation energy:                                -43.95024038660651
  Hartree-Fock Exchange energy:                                -9.58166586777075
  Dispersion energy:                                           -0.10914983776993

  Total energy:                                              -179.33123000627239

  outer SCF iter =    1 RMS gradient =   0.54E-04 energy =       -179.3312300063

  ----------------------------------- OT ---------------------------------------
  Minimizer      : DIIS                : direct inversion
                                         in the iterative subspace
                                         using   7 DIIS vectors
                                         safer DIIS on
  Preconditioner : FULL_ALL            : diagonalization, state selective
  Precond_solver : DEFAULT
  stepsize       :    0.15000000                  energy_gap     :    0.08000000
  eps_taylor     :   0.10000E-15                  max_taylor     :             4
  ----------------------------------- OT ---------------------------------------

  Step     Update method      Time    Convergence         Total energy    Change
  ------------------------------------------------------------------------------
     1 OT DIIS     0.15E+00   53.5     0.00019048      -179.3312533228 -2.33E-05
     2 OT DIIS     0.15E+00   26.7     0.00008037      -179.3313676746 -1.14E-04
     3 OT DIIS     0.15E+00   26.8     0.00004590      -179.3313891709 -2.15E-05
     4 OT DIIS     0.15E+00   26.7     0.00000813      -179.3313915904 -2.42E-06
     5 OT DIIS     0.15E+00   26.8     0.00000316      -179.3313916858 -9.53E-08
     6 OT DIIS     0.15E+00   26.8     0.00000122      -179.3313917160 -3.02E-08
     7 OT DIIS     0.15E+00   26.7     0.00000041      -179.3313917196 -3.60E-09
     8 OT DIIS     0.15E+00   26.7     0.00000020      -179.3313917199 -3.01E-10
     9 OT DIIS     0.15E+00   26.8     0.00000007      -179.3313917199 -4.80E-11
    10 OT DIIS     0.15E+00   26.7     0.00000003      -179.3313917199 -1.14E-11
    11 OT DIIS     0.15E+00   26.7     0.00000001      -179.3313917199 -2.07E-12
    12 OT DIIS     0.15E+00   26.7     6.2017E-09      -179.3313917199 -2.56E-13
    13 OT DIIS     0.15E+00   26.8     2.4628E-09      -179.3313917199  8.53E-14
    14 OT DIIS     0.15E+00   26.8     1.0152E-09      -179.3313917199 -5.68E-14
    15 OT DIIS     0.15E+00   26.7     4.0697E-10      -179.3313917199  2.84E-14

  *** SCF run converged in    15 steps ***


  Electronic density on regular grids:       -120.0000000000       -0.0000000000
  Core density on regular grids:              120.0000000000        0.0000000000
  Total charge density on r-space grids:       -0.0000000000
  Total charge density g-space grids:          -0.0000000000

  Overlap energy of the core charge distribution:               0.00001120448048
  Self energy of the core charge distribution:               -434.73266088811687
  Core Hamiltonian energy:                                    134.48547982474702
  Hartree energy:                                             174.55687571113077
  Exchange-correlation energy:                                -43.95024528332435
  Hartree-Fock Exchange energy:                                -9.58170245106519
  Dispersion energy:                                           -0.10914983776993

  Total energy:                                              -179.33139171991806

  outer SCF iter =    2 RMS gradient =   0.41E-09 energy =       -179.3313917199
  outer SCF loop converged in   2 iterations or   65 steps


 !-----------------------------------------------------------------------------!
                     Mulliken Population Analysis

 #  Atom  Element  Kind  Atomic population                           Net charge
       1     N        1          5.322695                             -0.322695
       2     C        2          3.934518                              0.065482
       3     H        3          0.915868                              0.084132
       4     C        2          3.941178                              0.058822
       5     H        3          0.892794                              0.107206
       6     N        1          5.329910                             -0.329910
       7     C        2          3.930379                              0.069621
       8     H        3          0.895963                              0.104037
       9     C        2          3.923648                              0.076352
      10     H        3          0.920827                              0.079173
      11     N        1          5.326867                             -0.326867
      12     C        2          3.924810                              0.075190
      13     H        3          0.915901                              0.084099
      14     C        2          3.940634                              0.059366
      15     H        3          0.890329                              0.109671
      16     N        1          5.326369                             -0.326369
      17     C        2          3.934605                              0.065395
      18     H        3          0.890956                              0.109044
      19     C        2          3.918763                              0.081237
      20     H        3          0.923021                              0.076979
      21     N        1          5.322373                             -0.322373
      22     C        2          3.931173                              0.068827
      23     H        3          0.912976                              0.087024
      24     C        2          3.936107                              0.063893
      25     H        3          0.892395                              0.107605
      26     N        1          5.329690                             -0.329690
      27     C        2          3.933542                              0.066458
      28     H        3          0.893154                              0.106846
      29     C        2          3.916696                              0.083304
      30     H        3          0.923647                              0.076353
      31     N        1          5.326829                             -0.326829
      32     C        2          3.931420                              0.068580
      33     H        3          0.912948                              0.087052
      34     C        2          3.940306                              0.059694
      35     H        3          0.892632                              0.107368
      36     N        1          5.331916                             -0.331916
      37     C        2          3.929963                              0.070037
      38     H        3          0.896508                              0.103492
      39     C        2          3.924649                              0.075351
      40     H        3          0.921043                              0.078957
 # Total charge                            120.000000                 -0.000000

 !-----------------------------------------------------------------------------!

 !-----------------------------------------------------------------------------!
                           Hirshfeld Charges

  #Atom  Element  Kind  Ref Charge     Population                    Net charge
      1       N      1       5.000          5.446                        -0.446
      2       C      2       4.000          4.231                        -0.231
      3       H      3       1.000          0.553                         0.447
      4       C      2       4.000          4.223                        -0.223
      5       H      3       1.000          0.550                         0.450
      6       N      1       5.000          5.450                        -0.450
      7       C      2       4.000          4.216                        -0.216
      8       H      3       1.000          0.550                         0.450
      9       C      2       4.000          4.231                        -0.231
     10       H      3       1.000          0.555                         0.445
     11       N      1       5.000          5.448                        -0.448
     12       C      2       4.000          4.226                        -0.226
     13       H      3       1.000          0.553                         0.447
     14       C      2       4.000          4.219                        -0.219
     15       H      3       1.000          0.550                         0.450
     16       N      1       5.000          5.451                        -0.451
     17       C      2       4.000          4.217                        -0.217
     18       H      3       1.000          0.549                         0.451
     19       C      2       4.000          4.228                        -0.228
     20       H      3       1.000          0.554                         0.446
     21       N      1       5.000          5.445                        -0.445
     22       C      2       4.000          4.227                        -0.227
     23       H      3       1.000          0.553                         0.447
     24       C      2       4.000          4.219                        -0.219
     25       H      3       1.000          0.550                         0.450
     26       N      1       5.000          5.455                        -0.455
     27       C      2       4.000          4.217                        -0.217
     28       H      3       1.000          0.550                         0.450
     29       C      2       4.000          4.226                        -0.226
     30       H      3       1.000          0.555                         0.445
     31       N      1       5.000          5.446                        -0.446
     32       C      2       4.000          4.230                        -0.230
     33       H      3       1.000          0.553                         0.447
     34       C      2       4.000          4.220                        -0.220
     35       H      3       1.000          0.550                         0.450
     36       N      1       5.000          5.452                        -0.452
     37       C      2       4.000          4.216                        -0.216
     38       H      3       1.000          0.550                         0.450
     39       C      2       4.000          4.231                        -0.231
     40       H      3       1.000          0.554                         0.446

  Total Charge                                                           -0.000
 !-----------------------------------------------------------------------------!

 *******************************************************************************
 **                                                                           **
 **         ######## #######   #######   ######## #######  ########           **
 **            ##    ##     ## ##     ## ##       ##   ##     ##              **
 **            ##    ##     ## ##     ## ######   #######     ##              **
 **            ##    ##     ## ##     ## ##       ##          ##              **
 **            ##    #######   #######   ##       ##          ##              **
 **                                                                           **
 *******************************************************************************
 KERNEL|                                                                    FULL
 FUNCTIONAL| BECKE88:
 FUNCTIONAL| A. Becke, Phys. Rev. A 38, 3098 (1988) {LDA version}               
 FUNCTIONAL| LYP:
 FUNCTIONAL| C. Lee, W. Yang, R.G. Parr, Phys. Rev. B, 37, 785 (1988) {LDA versi
 FUNCTIONAL| on}                                                                
 FUNCTIONAL| VWN:
 FUNCTIONAL| S. H. Vosko, L. Wilk and M. Nusair, Can. J. Phys. 58, 1200 (1980) {
 FUNCTIONAL| LDA version}                                                       
 FUNCTIONAL| XALPHA:
 FUNCTIONAL| Dirac/Slater local exchange; parameter=  0.666 {LDA}               
 KERNEL|                                                     ADMM Exact Exchange
 KERNEL|                                                   Apply ADMM Kernel XC 
 KERNEL|                                                   Symmetric ADMM Kernel
 KERNEL| Spin symmetry of excitations                                    Singlet
 TDDFPT| Number of states calculated                                          80
 TDDFPT| Number of Davidson iterations                                       100
 TDDFPT| Davidson iteration convergence                                0.367E-06
 TDDFPT| Max. number of Krylov space vectors                                5000
 TDDFPT| Molecular Orbitals:        Spin       AOs       Occ      Virt     Total
 TDDFPT|                               1       504        60       444       504
 
 -------------------------------------------------------------------------------
 -                            TDDFPT Initial Guess                             -
 -------------------------------------------------------------------------------
          State         Occupied      ->      Virtual          Excitation
          number         orbital              orbital          energy (eV)
 -------------------------------------------------------------------------------
             1               60                   61              3.89020
             2               59                   61              4.04391
             3               60                   62              4.13709
             4               60                   63              4.18425
             5               60                   64              4.20970
             6               59                   62              4.29079
             7               59                   63              4.33795
             8               58                   61              4.34974
             9               59                   64              4.36340
            10               57                   61              4.45147
            11               58                   62              4.59663
            12               58                   63              4.64379
            13               58                   64              4.66923
            14               57                   62              4.69836
            15               57                   63              4.74552
            16               57                   64              4.77096
            17               60                   65              5.14765
            18               60                   66              5.28280
            19               60                   67              5.28909
            20               59                   65              5.30135
            21               59                   66              5.43651
            22               59                   67              5.44280
            23               60                   68              5.55130
            24               58                   65              5.60719
            25               59                   68              5.70500
            26               57                   65              5.70892
            27               58                   66              5.74234
            28               58                   67              5.74863
            29               56                   61              5.82743
            30               57                   66              5.84407
            31               57                   67              5.85036
            32               55                   61              5.86684
            33               54                   61              5.88428
            34               53                   61              5.91910
            35               52                   61              6.00332
            36               58                   68              6.01084
            37               51                   61              6.03015
            38               50                   61              6.04224
            39               56                   62              6.07432
            40               49                   61              6.09046
            41               48                   61              6.10632
            42               57                   68              6.11257
            43               55                   62              6.11372
            44               56                   63              6.12148
            45               54                   62              6.13116
            46               56                   64              6.14692
            47               47                   61              6.15429
            48               55                   63              6.16088
            49               53                   62              6.16598
            50               54                   63              6.17832
            51               46                   61              6.18006
            52               55                   64              6.18633
            53               54                   64              6.20377
            54               53                   63              6.21314
            55               45                   61              6.21996
            56               53                   64              6.23859
            57               52                   62              6.25021
            58               51                   62              6.27704
            59               50                   62              6.28913
            60               52                   63              6.29736
            61               52                   64              6.32281
            62               51                   63              6.32420
            63               50                   63              6.33629
            64               49                   62              6.33735
            65               51                   64              6.34964
            66               48                   62              6.35321
            67               50                   64              6.36173
            68               49                   63              6.38451
            69               48                   63              6.40036
            70               47                   62              6.40118
            71               49                   64              6.40995
            72               48                   64              6.42581
            73               46                   62              6.42694
            74               47                   63              6.44833
            75               45                   62              6.46685
            76               47                   64              6.47378
            77               46                   63              6.47410
            78               46                   64              6.49955
            79               45                   63              6.51401
            80               45                   64              6.53945

      Number of active states:                                      26640
 -------------------------------------------------------------------------------
