 DBCSR| CPU Multiplication driver                                           XSMM (U)
 DBCSR| Multrec recursion limit                                              512 (U)
 DBCSR| Multiplication stack size                                           1000 (D)
 DBCSR| Maximum elements for images                                    UNLIMITED (U)
 DBCSR| Multiplicative factor virtual images                                   1 (U)
 DBCSR| Use multiplication densification                                       T (D)
 DBCSR| Multiplication size stacks                                             3 (U)
 DBCSR| Use memory pool for CPU allocation                                     F (U)
 DBCSR| Number of 3D layers                                               SINGLE (U)
 DBCSR| Use MPI memory allocation                                              F (U)
 DBCSR| Use RMA algorithm                                                      F (U)
 DBCSR| Use Communication thread                                               T (U)
 DBCSR| Communication thread load                                             87 (D)
 DBCSR| MPI: My process id                                                     0
 DBCSR| MPI: Number of processes                                              16
 DBCSR| OMP: Current number of threads                                         1
 DBCSR| OMP: Max number of threads                                             1
 DBCSR| Split modifier for TAS multiplication algorithm                  1.0E+00 (U)


  **** **** ******  **  PROGRAM STARTED AT               2025-01-06 00:24:58.381
 ***** ** ***  *** **   PROGRAM STARTED ON                           nesh-srp159
 **    ****   ******    PROGRAM STARTED BY                              suphc356
 ***** **    ** ** **   PROGRAM PROCESS ID                               4072504
  **** **  *******  **  PROGRAM STARTED IN /gxfs_work/cau/suphc356/NEWTONX_proje
                                           ct/Pyrazin_molecule/CP2K_GAPW_B3LYP_d
                                           ef2_TZVP/MOLDYN_BA_again/TRAJECTORIES
                                           /TRAJ68/TEMP

 CP2K| version string:                 CP2K version 2024.1 (Development Version)
 CP2K| source code revision number:                                  git:990486a
 CP2K| cp2kflags: omp libint fftw3 libxc libgrpp parallel mpi_f08 scalapack cosm
 CP2K|            a xsmm spglib mkl
 CP2K| is freely available from                            https://www.cp2k.org/
 CP2K| Program compiled at                          Mon Mar 11 08:48:45 CET 2024
 CP2K| Program compiled on                                           nesh-login2
 CP2K| Program compiled for                                                local
 CP2K| Data directory path                 /gxfs_work/cau/suphc356/cp2k_gcc/data
 CP2K| Input file name                                                  cp2k.inp

 GLOBAL| Force Environment number                                              1
 GLOBAL| Basis set file name                                     EMSL_BASIS_SETS
 GLOBAL| Potential file name                                      ALL_POTENTIALS
 GLOBAL| MM Potential file name                                     MM_POTENTIAL
 GLOBAL| Coordinate file name                                      __STD_INPUT__
 GLOBAL| Method name                                                        CP2K
 GLOBAL| Project name                                               testsuite_ad
 GLOBAL| Run type                                                   ENERGY_FORCE
 GLOBAL| FFT library                                                       FFTW3
 GLOBAL| Diagonalization library                                       ScaLAPACK
 GLOBAL| DGEMM library                                                      BLAS
 GLOBAL| Orthonormality check for eigenvectors                          DISABLED
 GLOBAL| Matrix multiplication library                                     COSMA
 GLOBAL| All-to-all communication in single precision                          F
 GLOBAL| FFTs using library dependent lengths                                  F
 GLOBAL| Grid backend                                                       AUTO
 GLOBAL| Global print level                                               MEDIUM
 GLOBAL| MPI I/O enabled                                                       T
 GLOBAL| Total number of message passing processes                            16
 GLOBAL| Number of threads for this process                                    1
 GLOBAL| This output is from process                                           0
 GLOBAL| Stack size for threads created by OpenMP (OMP_STACKSIZE)           256M
 GLOBAL| CPU model name                              Intel(R) Xeon(R) Gold 6426Y
 GLOBAL| CPUID                                                              1003
 GLOBAL| Compiled for CPUID                                                    0

 *** HINT in environment.F:920 :: The compiler target flags (generic) used ***
 *** to build this binary cannot exploit all extensions of this CPU model  ***
 *** (x86_avx512). Consider compiler target flags as part of FCFLAGS and   ***
 *** CFLAGS (ARCH file).                                                   ***


 MEMORY| system memory details [Kb]
 MEMORY|                        rank 0           min           max       average
 MEMORY| MemTotal            263786136     263786136     263786136     263786136
 MEMORY| MemFree             246825540     246825540     246825540     246825540
 MEMORY| Buffers                636676        636676        636676        636676
 MEMORY| Cached                 561376        561376        561376        561376
 MEMORY| Slab                  1560204       1560204       1560204       1560204
 MEMORY| SReclaimable           130428        130428        130428        130428
 MEMORY| MemLikelyFree       248154020     248154020     248154020     248154020


 *** Fundamental physical constants (SI units) ***

 *** Literature: B. J. Mohr and B. N. Taylor,
 ***             CODATA recommended values of the fundamental physical
 ***             constants: 2006, Web Version 5.1
 ***             http://physics.nist.gov/constants

 Speed of light in vacuum [m/s]                             2.99792458000000E+08
 Magnetic constant or permeability of vacuum [N/A**2]       1.25663706143592E-06
 Electric constant or permittivity of vacuum [F/m]          8.85418781762039E-12
 Planck constant (h) [J*s]                                  6.62606896000000E-34
 Planck constant (h-bar) [J*s]                              1.05457162825177E-34
 Elementary charge [C]                                      1.60217648700000E-19
 Electron mass [kg]                                         9.10938215000000E-31
 Electron g factor [ ]                                     -2.00231930436220E+00
 Proton mass [kg]                                           1.67262163700000E-27
 Fine-structure constant                                    7.29735253760000E-03
 Rydberg constant [1/m]                                     1.09737315685270E+07
 Avogadro constant [1/mol]                                  6.02214179000000E+23
 Boltzmann constant [J/K]                                   1.38065040000000E-23
 Atomic mass unit [kg]                                      1.66053878200000E-27
 Bohr radius [m]                                            5.29177208590000E-11

 *** Conversion factors ***

 [u] -> [a.u.]                                              1.82288848426455E+03
 [Angstrom] -> [Bohr] = [a.u.]                              1.88972613288564E+00
 [a.u.] = [Bohr] -> [Angstrom]                              5.29177208590000E-01
 [a.u.] -> [s]                                              2.41888432650478E-17
 [a.u.] -> [fs]                                             2.41888432650478E-02
 [a.u.] -> [J]                                              4.35974393937059E-18
 [a.u.] -> [N]                                              8.23872205491840E-08
 [a.u.] -> [K]                                              3.15774647902944E+05
 [a.u.] -> [kJ/mol]                                         2.62549961709828E+03
 [a.u.] -> [kcal/mol]                                       6.27509468713739E+02
 [a.u.] -> [Pa]                                             2.94210107994716E+13
 [a.u.] -> [bar]                                            2.94210107994716E+08
 [a.u.] -> [atm]                                            2.90362800883016E+08
 [a.u.] -> [eV]                                             2.72113838565563E+01
 [a.u.] -> [Hz]                                             6.57968392072181E+15
 [a.u.] -> [1/cm] (wave numbers)                            2.19474631370540E+05
 [a.u./Bohr**2] -> [1/cm]                                   5.14048714338585E+03
 

 CELL_TOP| Volume [angstrom^3]:                                      2744.000000
 CELL_TOP| Vector a [angstrom    14.000     0.000     0.000   |a| =    14.000000
 CELL_TOP| Vector b [angstrom     0.000    14.000     0.000   |b| =    14.000000
 CELL_TOP| Vector c [angstrom     0.000     0.000    14.000   |c| =    14.000000
 CELL_TOP| Angle (b,c), alpha [degree]:                                90.000000
 CELL_TOP| Angle (a,c), beta  [degree]:                                90.000000
 CELL_TOP| Angle (a,b), gamma [degree]:                                90.000000
 CELL_TOP| Numerically orthorhombic:                                         YES
 CELL_TOP| Periodicity                                                      NONE

 CELL| Volume [angstrom^3]:                                          2744.000000
 CELL| Vector a [angstrom]:      14.000     0.000     0.000   |a| =    14.000000
 CELL| Vector b [angstrom]:       0.000    14.000     0.000   |b| =    14.000000
 CELL| Vector c [angstrom]:       0.000     0.000    14.000   |c| =    14.000000
 CELL| Angle (b,c), alpha [degree]:                                    90.000000
 CELL| Angle (a,c), beta  [degree]:                                    90.000000
 CELL| Angle (a,b), gamma [degree]:                                    90.000000
 CELL| Numerically orthorhombic:                                             YES
 CELL| Periodicity                                                          NONE

 CELL_REF| Volume [angstrom^3]:                                      2744.000000
 CELL_REF| Vector a [angstrom    14.000     0.000     0.000   |a| =    14.000000
 CELL_REF| Vector b [angstrom     0.000    14.000     0.000   |b| =    14.000000
 CELL_REF| Vector c [angstrom     0.000     0.000    14.000   |c| =    14.000000
 CELL_REF| Angle (b,c), alpha [degree]:                                90.000000
 CELL_REF| Angle (a,c), beta  [degree]:                                90.000000
 CELL_REF| Angle (a,b), gamma [degree]:                                90.000000
 CELL_REF| Numerically orthorhombic:                                         YES
 CELL_REF| Periodicity                                                      NONE

 *******************************************************************************
 *******************************************************************************
 **                                                                           **
 **     #####                         ##              ##                      **
 **    ##   ##            ##          ##              ##                      **
 **   ##     ##                       ##            ######                    **
 **   ##     ##  ##   ##  ##   #####  ##  ##   ####   ##    #####    #####    **
 **   ##     ##  ##   ##  ##  ##      ## ##   ##      ##   ##   ##  ##   ##   **
 **   ##  ## ##  ##   ##  ##  ##      ####     ###    ##   ######   ######    **
 **    ##  ###   ##   ##  ##  ##      ## ##      ##   ##   ##       ##        **
 **     #######   #####   ##   #####  ##  ##  ####    ##    #####   ##        **
 **           ##                                                    ##        **
 **                                                                           **
 **                                                ... make the atoms dance   **
 **                                                                           **
 **            Copyright (C) by CP2K developers group (2000-2024)             **
 **                      J. Chem. Phys. 152, 194103 (2020)                    **
 **                                                                           **
 *******************************************************************************

 DFT| Spin restricted Kohn-Sham (RKS) calculation                            RKS
 DFT| Multiplicity                                                             1
 DFT| Number of spin states                                                    1
 DFT| Charge                                                                   0
 DFT| Self-interaction correction (SIC)                                       NO
 DFT| Cutoffs: density                                              1.000000E-10
 DFT|          gradient                                             1.000000E-10
 DFT|          tau                                                  1.000000E-10
 DFT|          cutoff_smoothing_range                               0.000000E+00
 DFT| XC density smoothing                                                  NONE
 DFT| XC derivatives                                                          PW

 FUNCTIONAL| BECKE88:
 FUNCTIONAL| A. Becke, Phys. Rev. A 38, 3098 (1988) {LDA version}               
 FUNCTIONAL| LYP:
 FUNCTIONAL| C. Lee, W. Yang, R.G. Parr, Phys. Rev. B, 37, 785 (1988) {LDA versi
 FUNCTIONAL| on}                                                                
 FUNCTIONAL| VWN:
 FUNCTIONAL| S. H. Vosko, L. Wilk and M. Nusair, Can. J. Phys. 58, 1200 (1980) {
 FUNCTIONAL| LDA version}                                                       
 FUNCTIONAL| XALPHA:
 FUNCTIONAL| Dirac/Slater local exchange; parameter=  0.666 {LDA}               

 vdW POTENTIAL|                                                   Pair Potential
 vdW POTENTIAL|          DFT-D3 (Version 3.1)
 vdW POTENTIAL|          Potential Form: S. Grimme et al, JCP 132: 154104 (2010)
 vdW POTENTIAL|          Zero Damping
 vdW POTENTIAL|          Cutoff Radius [Bohr]:                             37.79
 vdW POTENTIAL|          s6 Scaling Factor:                               1.0000
 vdW POTENTIAL|          sr6 Scaling Factor:                              1.2610
 vdW POTENTIAL|          s8 Scaling Factor:                               1.7030
 vdW POTENTIAL|          Cutoff for CN calculation:                   0.1000E-05

 QS| Method:                                                                GAPW
 QS| Density plane wave grid type                        NON-SPHERICAL FULLSPACE
 QS| Number of grid levels:                                                    4
 QS| Density cutoff [a.u.]:                                                200.0
 QS| Multi grid cutoff [a.u.]: 1) grid level                               200.0
 QS|                           2) grid level                                66.7
 QS|                           3) grid level                                22.2
 QS|                           4) grid level                                 7.4
 QS| Grid level progression factor:                                          3.0
 QS| Relative density cutoff [a.u.]:                                        30.0
 QS| Interaction thresholds: eps_pgf_orb:                                1.0E-07
 QS|                         eps_filter_matrix:                          0.0E+00
 QS|                         eps_core_charge:                            1.0E-16
 QS|                         eps_rho_gspace:                             1.0E-14
 QS|                         eps_rho_rspace:                             1.0E-14
 QS|                         eps_gvg_rspace:                             1.0E-07
 QS|                         eps_ppl:                                    1.0E-02
 QS|                         eps_ppnl:                                   1.0E-09
 QS| GAPW|      One center basis extended with primitives (small:s)
 QS| GAPW|                   eps_fit:                                    1.0E-04
 QS| GAPW|                   eps_iso:                                    1.0E-12
 QS| GAPW|                   eps_svd:                                    1.0E-08
 QS| GAPW|                   eps_cpc:                                    1.0E-14
 QS| GAPW|   atom-r-grid: quadrature:                                     GC_LOG
 QS| GAPW|      atom-s-grid:  max l :                                          6
 QS| GAPW|      max_l_rho0 :                                                   4


 ATOMIC KIND INFORMATION

  1. Atomic kind: n                                     Number of atoms:       2

     Orbital Basis Set                                        Ahlrichs-def2-TZVP

       Number of orbital shell sets:                                          11
       Number of orbital shells:                                              11
       Number of primitive Cartesian functions:                               20
       Number of Cartesian basis functions:                                   36
       Number of spherical basis functions:                                   31
       Norm type:                                                              2

       Normalised Cartesian orbitals:

                        Set   Shell   Orbital            Exponent    Coefficient

                          1       1    1s            19730.800647       0.695604
                                                      2957.895874       1.298610
                                                       673.221336       2.219088
                                                       190.682495       3.463661
                                                        62.295442       4.696756
                                                        22.654161       4.952251

                          2       1    1s                8.979148       2.388068
                                                         3.686300       0.733788

                          3       1    1s                0.846601       0.629027

                          4       1    1s                0.336471       0.314863

                          5       1    1s                0.136477       0.160031

                          6       1    1px              49.200381       2.126481
                                                        11.346791       2.327937
                                                         3.427397       2.048573
                                                         1.178553       1.260732
                          6       1    1py              49.200381       2.126481
                                                        11.346791       2.327937
                                                         3.427397       2.048573
                                                         1.178553       1.260732
                          6       1    1pz              49.200381       2.126481
                                                        11.346791       2.327937
                                                         3.427397       2.048573
                                                         1.178553       1.260732

                          7       1    1px               0.416422       0.476823
                          7       1    1py               0.416422       0.476823
                          7       1    1pz               0.416422       0.476823

                          8       1    1px               0.142608       0.124917
                          8       1    1py               0.142608       0.124917
                          8       1    1pz               0.142608       0.124917

                          9       1    1dx2              1.654000       3.970513
                          9       1    1dxy              1.654000       6.877130
                          9       1    1dxz              1.654000       6.877130
                          9       1    1dy2              1.654000       3.970513
                          9       1    1dyz              1.654000       6.877130
                          9       1    1dz2              1.654000       3.970513

                         10       1    1dx2              0.469000       0.437484
                         10       1    1dxy              0.469000       0.757744
                         10       1    1dxz              0.469000       0.757744
                         10       1    1dy2              0.469000       0.437484
                         10       1    1dyz              0.469000       0.757744
                         10       1    1dz2              0.469000       0.437484

                         11       1    1fx3              1.093000       1.798249
                         11       1    1fx2y             1.093000       4.021007
                         11       1    1fx2z             1.093000       4.021007
                         11       1    1fxy2             1.093000       4.021007
                         11       1    1fxyz             1.093000       6.964588
                         11       1    1fxz2             1.093000       4.021007
                         11       1    1fy3              1.093000       1.798249
                         11       1    1fy2z             1.093000       4.021007
                         11       1    1fyz2             1.093000       4.021007
                         11       1    1fz3              1.093000       1.798249

       Atomic covalent radius [Angstrom]:                                  0.750

       Atomic van der Waals radius [Angstrom]:                             1.550

     The atoms of this atomic kind are PAW atoms (GAPW):
       Hard Gaussian function radius:                                      1.400
       Rho0 radius:                                                        1.400
       Maximum GTO radius used for PAW projector construction:            24.566

     GAPW Soft Basis Set                                 Ahlrichs-def2-TZVP_soft

       Number of orbital shell sets:                                          11
       Number of orbital shells:                                              11
       Number of primitive Cartesian functions:                               11
       Number of Cartesian basis functions:                                   36
       Number of spherical basis functions:                                   31
       Norm type:                                                              2

       Normalised Cartesian orbitals:

                        Set   Shell   Orbital            Exponent    Coefficient

                          1       1    1s         

                          2       1    1s                3.686300       0.733788

                          3       1    1s                0.846601       0.629027

                          4       1    1s                0.336471       0.314863

                          5       1    1s                0.136477       0.160031

                          6       1    1px               3.427397       2.048573
                                                         1.178553       1.260732
                          6       1    1py               3.427397       2.048573
                                                         1.178553       1.260732
                          6       1    1pz               3.427397       2.048573
                                                         1.178553       1.260732

                          7       1    1px               0.416422       0.476823
                          7       1    1py               0.416422       0.476823
                          7       1    1pz               0.416422       0.476823

                          8       1    1px               0.142608       0.124917
                          8       1    1py               0.142608       0.124917
                          8       1    1pz               0.142608       0.124917

                          9       1    1dx2              1.654000       3.970513
                          9       1    1dxy              1.654000       6.877130
                          9       1    1dxz              1.654000       6.877130
                          9       1    1dy2              1.654000       3.970513
                          9       1    1dyz              1.654000       6.877130
                          9       1    1dz2              1.654000       3.970513

                         10       1    1dx2              0.469000       0.437484
                         10       1    1dxy              0.469000       0.757744
                         10       1    1dxz              0.469000       0.757744
                         10       1    1dy2              0.469000       0.437484
                         10       1    1dyz              0.469000       0.757744
                         10       1    1dz2              0.469000       0.437484

                         11       1    1fx3              1.093000       1.798249
                         11       1    1fx2y             1.093000       4.021007
                         11       1    1fx2z             1.093000       4.021007
                         11       1    1fxy2             1.093000       4.021007
                         11       1    1fxyz             1.093000       6.964588
                         11       1    1fxz2             1.093000       4.021007
                         11       1    1fy3              1.093000       1.798249
                         11       1    1fy2z             1.093000       4.021007
                         11       1    1fyz2             1.093000       4.021007
                         11       1    1fz3              1.093000       1.798249

     AE Potential information for                                            ALL

       Description:                                       All-electron potential
                                          Krack, Parrinello, PCCP 2, 2105 (2000)

       Gaussian exponent of the core charge distribution:               5.979100
       Electronic configuration (s p d ...):                           4   3   0

  2. Atomic kind: c                                     Number of atoms:       4

     Orbital Basis Set                                        Ahlrichs-def2-TZVP

       Number of orbital shell sets:                                          11
       Number of orbital shells:                                              11
       Number of primitive Cartesian functions:                               20
       Number of Cartesian basis functions:                                   36
       Number of spherical basis functions:                                   31
       Norm type:                                                              2

       Normalised Cartesian orbitals:

                        Set   Shell   Orbital            Exponent    Coefficient

                          1       1    1s            13575.349682       0.543591
                                                      2035.233368       1.014554
                                                       463.225624       1.731573
                                                       131.200196       2.691038
                                                        42.853016       3.604455
                                                        15.584186       3.702556

                          2       1    1s                6.206714       1.838354
                                                         2.576490       0.544758

                          3       1    1s                0.576963       0.471815

                          4       1    1s                0.229728       0.236494

                          5       1    1s                0.095164       0.122114

                          6       1    1px              34.697232       1.359665
                                                         7.958262       1.451259
                                                         2.378083       1.270923
                                                         0.814332       0.802572
                          6       1    1py              34.697232       1.359665
                                                         7.958262       1.451259
                                                         2.378083       1.270923
                                                         0.814332       0.802572
                          6       1    1pz              34.697232       1.359665
                                                         7.958262       1.451259
                                                         2.378083       1.270923
                                                         0.814332       0.802572

                          7       1    1px               0.288875       0.301876
                          7       1    1py               0.288875       0.301876
                          7       1    1pz               0.288875       0.301876

                          8       1    1px               0.100568       0.080727
                          8       1    1py               0.100568       0.080727
                          8       1    1pz               0.100568       0.080727

                          9       1    1dx2              1.097000       1.935401
                          9       1    1dxy              1.097000       3.352214
                          9       1    1dxz              1.097000       3.352214
                          9       1    1dy2              1.097000       1.935401
                          9       1    1dyz              1.097000       3.352214
                          9       1    1dz2              1.097000       1.935401

                         10       1    1dx2              0.318000       0.221644
                         10       1    1dxy              0.318000       0.383899
                         10       1    1dxz              0.318000       0.383899
                         10       1    1dy2              0.318000       0.221644
                         10       1    1dyz              0.318000       0.383899
                         10       1    1dz2              0.318000       0.221644

                         11       1    1fx3              0.761000       0.796288
                         11       1    1fx2y             0.761000       1.780553
                         11       1    1fx2z             0.761000       1.780553
                         11       1    1fxy2             0.761000       1.780553
                         11       1    1fxyz             0.761000       3.084008
                         11       1    1fxz2             0.761000       1.780553
                         11       1    1fy3              0.761000       0.796288
                         11       1    1fy2z             0.761000       1.780553
                         11       1    1fyz2             0.761000       1.780553
                         11       1    1fz3              0.761000       0.796288

       Atomic covalent radius [Angstrom]:                                  0.770

       Atomic van der Waals radius [Angstrom]:                             1.700

     The atoms of this atomic kind are PAW atoms (GAPW):
       Hard Gaussian function radius:                                      1.520
       Rho0 radius:                                                        1.520
       Maximum GTO radius used for PAW projector construction:            24.566

     GAPW Soft Basis Set                                 Ahlrichs-def2-TZVP_soft

       Number of orbital shell sets:                                          11
       Number of orbital shells:                                              11
       Number of primitive Cartesian functions:                               11
       Number of Cartesian basis functions:                                   36
       Number of spherical basis functions:                                   31
       Norm type:                                                              2

       Normalised Cartesian orbitals:

                        Set   Shell   Orbital            Exponent    Coefficient

                          1       1    1s         

                          2       1    1s                2.576490       0.544758

                          3       1    1s                0.576963       0.471815

                          4       1    1s                0.229728       0.236494

                          5       1    1s                0.095164       0.122114

                          6       1    1px               2.378083       1.270923
                                                         0.814332       0.802572
                          6       1    1py               2.378083       1.270923
                                                         0.814332       0.802572
                          6       1    1pz               2.378083       1.270923
                                                         0.814332       0.802572

                          7       1    1px               0.288875       0.301876
                          7       1    1py               0.288875       0.301876
                          7       1    1pz               0.288875       0.301876

                          8       1    1px               0.100568       0.080727
                          8       1    1py               0.100568       0.080727
                          8       1    1pz               0.100568       0.080727

                          9       1    1dx2              1.097000       1.935401
                          9       1    1dxy              1.097000       3.352214
                          9       1    1dxz              1.097000       3.352214
                          9       1    1dy2              1.097000       1.935401
                          9       1    1dyz              1.097000       3.352214
                          9       1    1dz2              1.097000       1.935401

                         10       1    1dx2              0.318000       0.221644
                         10       1    1dxy              0.318000       0.383899
                         10       1    1dxz              0.318000       0.383899
                         10       1    1dy2              0.318000       0.221644
                         10       1    1dyz              0.318000       0.383899
                         10       1    1dz2              0.318000       0.221644

                         11       1    1fx3              0.761000       0.796288
                         11       1    1fx2y             0.761000       1.780553
                         11       1    1fx2z             0.761000       1.780553
                         11       1    1fxy2             0.761000       1.780553
                         11       1    1fxyz             0.761000       3.084008
                         11       1    1fxz2             0.761000       1.780553
                         11       1    1fy3              0.761000       0.796288
                         11       1    1fy2z             0.761000       1.780553
                         11       1    1fyz2             0.761000       1.780553
                         11       1    1fz3              0.761000       0.796288

     AE Potential information for                                            ALL

       Description:                                       All-electron potential
                                          Krack, Parrinello, PCCP 2, 2105 (2000)

       Gaussian exponent of the core charge distribution:               4.109048
       Electronic configuration (s p d ...):                           4   2   0

  3. Atomic kind: h                                     Number of atoms:       4

     Orbital Basis Set                                        Ahlrichs-def2-TZVP

       Number of orbital shell sets:                                           4
       Number of orbital shells:                                               4
       Number of primitive Cartesian functions:                                6
       Number of Cartesian basis functions:                                    6
       Number of spherical basis functions:                                    6
       Norm type:                                                              2

       Normalised Cartesian orbitals:

                        Set   Shell   Orbital            Exponent    Coefficient

                          1       1    1s               34.061341       0.255630
                                                         5.123575       0.461360
                                                         1.164663       0.681121

                          2       1    1s                0.327230       0.308355

                          3       1    1s                0.103072       0.129648

                          4       1    1px               0.800000       1.078456
                          4       1    1py               0.800000       1.078456
                          4       1    1pz               0.800000       1.078456

       Atomic covalent radius [Angstrom]:                                  0.320

       Atomic van der Waals radius [Angstrom]:                             1.090

     The atoms of this atomic kind are PAW atoms (GAPW):
       Hard Gaussian function radius:                                      1.000
       Rho0 radius:                                                        1.000
       Maximum GTO radius used for PAW projector construction:            24.566

     GAPW Soft Basis Set                                 Ahlrichs-def2-TZVP_soft

       Number of orbital shell sets:                                           4
       Number of orbital shells:                                               4
       Number of primitive Cartesian functions:                                5
       Number of Cartesian basis functions:                                    6
       Number of spherical basis functions:                                    6
       Norm type:                                                              2

       Normalised Cartesian orbitals:

                        Set   Shell   Orbital            Exponent    Coefficient

                          1       1    1s                5.123575       0.461360
                                                         1.164663       0.681121

                          2       1    1s                0.327230       0.308355

                          3       1    1s                0.103072       0.129648

                          4       1    1px               0.800000       1.078456
                          4       1    1py               0.800000       1.078456
                          4       1    1pz               0.800000       1.078456

     AE Potential information for                                            ALL

       Description:                                       All-electron potential
                                          Krack, Parrinello, PCCP 2, 2105 (2000)

       Gaussian exponent of the core charge distribution:              12.500000
       Electronic configuration (s p d ...):                           1   0   0


 MOLECULE KIND INFORMATION


 All atoms are their own molecule, skipping detailed information


 TOTAL NUMBERS AND MAXIMUM NUMBERS

  Total number of            - Atomic kinds:                                   3
                             - Atoms:                                         10
                             - Shell sets:                                    82
                             - Shells:                                        82
                             - Primitive Cartesian functions:                144
                             - Cartesian basis functions:                    240
                             - Spherical basis functions:                    210

  Maximum angular momentum of the orbital basis functions:                     3


 MODULE QUICKSTEP: ATOMIC COORDINATES IN ANGSTROM

   Atom Kind Element         X             Y             Z       Z(eff)     Mass
      1    1 n     7      7.008895      8.063768      7.610768   7.0000  14.0067
      2    1 n     7      6.971307      5.952371      6.539693   7.0000  14.0067
      3    2 c     6      6.922091      7.039162      8.483714   6.0000  12.0107
      4    2 c     6      6.844293      5.866931      7.744404   6.0000  12.0107
      5    2 c     6      7.027547      8.054513      6.327697   6.0000  12.0107
      6    2 c     6      6.704696      6.872338      5.517233   6.0000  12.0107
      7    3 h     1      7.295304      7.076015      9.532262   1.0000   1.0079
      8    3 h     1      6.818816      5.031919      8.534899   1.0000   1.0079
      9    3 h     1      6.887028      8.968081      5.738433   1.0000   1.0079
     10    3 h     1      7.045209      7.114991      4.467738   1.0000   1.0079



 SCF PARAMETERS         Density guess:                                   RESTART
                        --------------------------------------------------------
                        max_scf:                                              50
                        max_scf_history:                                       0
                        max_diis:                                              4
                        --------------------------------------------------------
                        eps_scf:                                        1.00E-08
                        eps_scf_history:                                0.00E+00
                        eps_diis:                                       1.00E-01
                        eps_eigval:                                     1.00E-05
                        --------------------------------------------------------
                        level_shift [a.u.]:                             0.000000
                        --------------------------------------------------------
                        Outer loop SCF in use 
                        No variables optimised in outer loop
                        eps_scf                                         1.00E-08
                        max_scf                                              900
                        No outer loop optimization
                        step_size                                       5.00E-01

 PW_GRID| Information for grid number                                          1
 PW_GRID| Grid distributed over                                    16 processors
 PW_GRID| Real space group dimensions                                    16    1
 PW_GRID| the grid is blocked:                                                NO
 PW_GRID| Cutoff [a.u.]                                                    400.0
 PW_GRID| spherical cutoff:                                                   NO
 PW_GRID|   Bounds   1           -120     119                Points:         240
 PW_GRID|   Bounds   2           -120     119                Points:         240
 PW_GRID|   Bounds   3           -120     119                Points:         240
 PW_GRID| Volume element (a.u.^3)  0.1340E-02     Volume (a.u.^3)     18517.4301
 PW_GRID| Grid span                                                    FULLSPACE
 PW_GRID|   Distribution                         Average         Max         Min
 PW_GRID|   G-Vectors                           864000.0      864000      864000
 PW_GRID|   G-Rays                                3600.0        3600        3600
 PW_GRID|   Real Space Points                   864000.0      864000      864000

 PW_GRID| Information for grid number                                          2
 PW_GRID| Number of the reference grid                                         1
 PW_GRID| Grid distributed over                                    16 processors
 PW_GRID| Real space group dimensions                                    16    1
 PW_GRID| the grid is blocked:                                                NO
 PW_GRID| Cutoff [a.u.]                                                    200.0
 PW_GRID| spherical cutoff:                                                   NO
 PW_GRID|   Bounds   1            -90      89                Points:         180
 PW_GRID|   Bounds   2            -90      89                Points:         180
 PW_GRID|   Bounds   3            -90      89                Points:         180
 PW_GRID| Volume element (a.u.^3)  0.3175E-02     Volume (a.u.^3)     18517.4301
 PW_GRID| Grid span                                                    FULLSPACE
 PW_GRID|   Distribution                         Average         Max         Min
 PW_GRID|   G-Vectors                           364500.0      364680      364320
 PW_GRID|   G-Rays                                2025.0        2026        2024
 PW_GRID|   Real Space Points                   364500.0      388800      356400

 PW_GRID| Information for grid number                                          3
 PW_GRID| Number of the reference grid                                         2
 PW_GRID| Grid distributed over                                    16 processors
 PW_GRID| Real space group dimensions                                    16    1
 PW_GRID| the grid is blocked:                                                NO
 PW_GRID| Cutoff [a.u.]                                                     66.7
 PW_GRID| spherical cutoff:                                                   NO
 PW_GRID|   Bounds   1            -50      49                Points:         100
 PW_GRID|   Bounds   2            -50      49                Points:         100
 PW_GRID|   Bounds   3            -50      49                Points:         100
 PW_GRID| Volume element (a.u.^3)  0.1852E-01     Volume (a.u.^3)     18517.4301
 PW_GRID| Grid span                                                    FULLSPACE
 PW_GRID|   Distribution                         Average         Max         Min
 PW_GRID|   G-Vectors                            62500.0       62600       62400
 PW_GRID|   G-Rays                                 625.0         626         624
 PW_GRID|   Real Space Points                    62500.0       70000       60000

 PW_GRID| Information for grid number                                          4
 PW_GRID| Number of the reference grid                                         2
 PW_GRID| Grid distributed over                                    16 processors
 PW_GRID| Real space group dimensions                                    16    1
 PW_GRID| the grid is blocked:                                                NO
 PW_GRID| Cutoff [a.u.]                                                     22.2
 PW_GRID| spherical cutoff:                                                   NO
 PW_GRID|   Bounds   1            -30      29                Points:          60
 PW_GRID|   Bounds   2            -30      29                Points:          60
 PW_GRID|   Bounds   3            -30      29                Points:          60
 PW_GRID| Volume element (a.u.^3)  0.8573E-01     Volume (a.u.^3)     18517.4301
 PW_GRID| Grid span                                                    FULLSPACE
 PW_GRID|   Distribution                         Average         Max         Min
 PW_GRID|   G-Vectors                            13500.0       13560       13440
 PW_GRID|   G-Rays                                 225.0         226         224
 PW_GRID|   Real Space Points                    13500.0       14400       10800

 PW_GRID| Information for grid number                                          5
 PW_GRID| Number of the reference grid                                         2
 PW_GRID| Grid distributed over                                    16 processors
 PW_GRID| Real space group dimensions                                    16    1
 PW_GRID| the grid is blocked:                                                NO
 PW_GRID| Cutoff [a.u.]                                                      7.4
 PW_GRID| spherical cutoff:                                                   NO
 PW_GRID|   Bounds   1            -18      17                Points:          36
 PW_GRID|   Bounds   2            -18      17                Points:          36
 PW_GRID|   Bounds   3            -18      17                Points:          36
 PW_GRID| Volume element (a.u.^3)  0.3969         Volume (a.u.^3)     18517.4301
 PW_GRID| Grid span                                                    FULLSPACE
 PW_GRID|   Distribution                         Average         Max         Min
 PW_GRID|   G-Vectors                             2916.0        2952        2880
 PW_GRID|   G-Rays                                  81.0          82          80
 PW_GRID|   Real Space Points                     2916.0        3888        2592

 POISSON| Solver                                          Martyna-Tuckerman (MT)
 POISSON| MT| Alpha                                                        7.000
 POISSON| MT| Relative cutoff                                                2.0
 POISSON| Periodicity                                                       NONE

 RS_GRID| Information for grid number                                          2
 RS_GRID|   Bounds   1            -90      89                Points:         180
 RS_GRID|   Bounds   2            -90      89                Points:         180
 RS_GRID|   Bounds   3            -90      89                Points:         180
 RS_GRID| Real space distribution over                                  4 groups
 RS_GRID| Real space distribution along direction                              2
 RS_GRID| Border size                                                         31
 RS_GRID| Real space distribution over                                  4 groups
 RS_GRID| Real space distribution along direction                              3
 RS_GRID| Border size                                                         31
 RS_GRID|   Distribution                         Average         Max         Min
 RS_GRID|   Planes                                 107.0         107         107
 RS_GRID|   Distribution                         Average         Max         Min
 RS_GRID|   Planes                                 107.0         107         107

 RS_GRID| Information for grid number                                          3
 RS_GRID|   Bounds   1            -50      49                Points:         100
 RS_GRID|   Bounds   2            -50      49                Points:         100
 RS_GRID|   Bounds   3            -50      49                Points:         100
 RS_GRID| Real space fully replicated
 RS_GRID| Group size                                                           1

 RS_GRID| Information for grid number                                          4
 RS_GRID|   Bounds   1            -30      29                Points:          60
 RS_GRID|   Bounds   2            -30      29                Points:          60
 RS_GRID|   Bounds   3            -30      29                Points:          60
 RS_GRID| Real space fully replicated
 RS_GRID| Group size                                                           1

 RS_GRID| Information for grid number                                          5
 RS_GRID|   Bounds   1            -18      17                Points:          36
 RS_GRID|   Bounds   2            -18      17                Points:          36
 RS_GRID|   Bounds   3            -18      17                Points:          36
 RS_GRID| Real space fully replicated
 RS_GRID| Group size                                                           1

  HFX_INFO| Replica ID:                                                        1
  HFX_INFO| FRACTION:                                               0.2000000000
  HFX_INFO| Interaction Potential:                                       COULOMB
  HFX_INFO| EPS_SCHWARZ:                                                 1.0E-10
  HFX_INFO| EPS_SCHWARZ_FORCES                                           1.0E-08
  HFX_INFO| EPS_STORAGE_SCALING:                                         1.0E+00
  HFX_INFO| NBINS:                                                            64
  HFX_INFO| BLOCK_SIZE:                                                        1
  HFX_INFO| Number of periodic shells considered:                           NONE
  HFX_INFO| Number of periodic cells considered:                            NONE


 Number of electrons:                                                         42
 Number of occupied orbitals:                                                 21
 Number of molecular orbitals:                                                21

 Number of orbital functions:                                                210
 Number of independent orbital functions:                                    210

 Extrapolation method: initial_guess


 SCF WAVEFUNCTION OPTIMIZATION

  ----------------------------------- OT ---------------------------------------
  Minimizer      : DIIS                : direct inversion
                                         in the iterative subspace
                                         using   7 DIIS vectors
                                         safer DIIS on
  Preconditioner : FULL_ALL            : diagonalization, state selective
  Precond_solver : DEFAULT
  stepsize       :    0.15000000                  energy_gap     :    0.08000000
  eps_taylor     :   0.10000E-15                  max_taylor     :             4
  ----------------------------------- OT ---------------------------------------

  Step     Update method      Time    Convergence         Total energy    Change
  ------------------------------------------------------------------------------

  HFX_MEM_INFO| Est. max. program size before HFX [MiB]:                     642
  HFX_MEM_INFO| Number of cart. primitive ERI's calculated:           1731928833
  HFX_MEM_INFO| Number of sph. ERI's calculated:                       316152774
  HFX_MEM_INFO| Number of sph. ERI's stored in-core:                   316152774
  HFX_MEM_INFO| Number of sph. ERI's stored on disk:                           0
  HFX_MEM_INFO| Number of sph. ERI's calculated on the fly:                    0
  HFX_MEM_INFO| Total memory consumption ERI's RAM [MiB]:                    945
  HFX_MEM_INFO| Whereof max-vals [MiB]:                                        5
  HFX_MEM_INFO| Total compression factor ERI's RAM:                         2.55
  HFX_MEM_INFO| Total memory consumption ERI's disk [MiB]:                     0
  HFX_MEM_INFO| Total compression factor ERI's disk:                        0.00
  HFX_MEM_INFO| Size of density/Fock matrix [MiB]:                             0
  HFX_MEM_INFO| Size of buffers [MiB]:                                         0
  HFX_MEM_INFO| Est. max. program size after HFX  [MiB]:                     699

     1 OT DIIS     0.15E+00    3.9     0.01500606      -263.9806632242 -2.64E+02
     2 OT DIIS     0.15E+00    0.7     0.00662985      -264.0872446587 -1.07E-01
     3 OT DIIS     0.15E+00    0.7     0.00152159      -264.1126802469 -2.54E-02
     4 OT DIIS     0.15E+00    0.7     0.00059434      -264.1132073799 -5.27E-04
     5 OT DIIS     0.15E+00    0.7     0.00024318      -264.1133117952 -1.04E-04
     6 OT DIIS     0.15E+00    0.7     0.00010763      -264.1133390243 -2.72E-05
     7 OT DIIS     0.15E+00    0.7     0.00003380      -264.1133457669 -6.74E-06
     8 OT DIIS     0.15E+00    0.7     0.00001446      -264.1133463449 -5.78E-07
     9 OT DIIS     0.15E+00    0.7     0.00000519      -264.1133464324 -8.75E-08
    10 OT DIIS     0.15E+00    0.7     0.00000169      -264.1133464453 -1.29E-08
    11 OT DIIS     0.15E+00    0.7     0.00000053      -264.1133464468 -1.56E-09
    12 OT DIIS     0.15E+00    0.7     0.00000029      -264.1133464469 -1.30E-10
    13 OT DIIS     0.15E+00    0.7     0.00000014      -264.1133464470 -1.06E-11
    14 OT DIIS     0.15E+00    0.7     0.00000004      -264.1133464470  7.96E-13
    15 OT DIIS     0.15E+00    0.7     0.00000002      -264.1133464470  4.21E-12
    16 OT DIIS     0.15E+00    0.7     7.5100E-09      -264.1133464469  5.46E-12

  *** SCF run converged in    16 steps ***


  Electronic density on regular grids:        -30.6410161999       11.3589838001
  Core density on regular grids:               42.0000000000       -0.0000000000
  Hard and soft densities (Lebedev):          -97.5007849092      -86.1418011002
  Total Rho_soft + Rho1_hard - Rho1_soft      -42.0000000088
  Total charge density (r-space):              -0.0000000088
  Total Rho_soft + Rho0_soft (g-space):        -0.0000000349

  Overlap energy of the core charge distribution:               0.00001277102295
  Self energy of the core charge distribution:               -217.69203579805162
  Core Hamiltonian energy:                                    -41.67755282112095
  Hartree energy:                                             109.60008201243387
  Exchange-correlation energy:                                -11.22493525789046
  Hartree-Fock Exchange energy:                                -7.05785621610480
  Dispersion energy:                                           -0.00354577177230

  GAPW| Exc from hard and soft atomic rho1:                   -18.55722575420957
  GAPW| local Eh = 1 center integrals:                        -77.50028961125329

  Total energy:                                              -264.11334644694620

  outer SCF iter =    1 RMS gradient =   0.75E-08 energy =       -264.1133464469
  outer SCF loop converged in   1 iterations or   16 steps


 !-----------------------------------------------------------------------------!
                     Mulliken Population Analysis

 #  Atom  Element  Kind  Atomic population                           Net charge
       1     n        1          7.201598                             -0.201598
       2     n        1          7.128077                             -0.128077
       3     c        2          5.987963                              0.012037
       4     c        2          6.074446                             -0.074446
       5     c        2          6.038624                             -0.038624
       6     c        2          5.993651                              0.006349
       7     h        3          0.873697                              0.126303
       8     h        3          0.927857                              0.072143
       9     h        3          0.909233                              0.090767
      10     h        3          0.864854                              0.135146
 # Total charge                             42.000000                  0.000000

 !-----------------------------------------------------------------------------!

 !-----------------------------------------------------------------------------!
                           Hirshfeld Charges

  #Atom  Element  Kind  Ref Charge     Population                    Net charge
      1       n      1       7.000          7.306                        -0.306
      2       n      1       7.000          7.269                        -0.269
      3       c      2       6.000          6.334                        -0.334
      4       c      2       6.000          6.340                        -0.340
      5       c      2       6.000          6.353                        -0.353
      6       c      2       6.000          6.343                        -0.343
      7       h      3       1.000          0.504                         0.496
      8       h      3       1.000          0.524                         0.476
      9       h      3       1.000          0.523                         0.477
     10       h      3       1.000          0.491                         0.509

  Total Charge                                                            0.014
 !-----------------------------------------------------------------------------!

 *******************************************************************************
 **                                                                           **
 **         ######## #######   #######   ######## #######  ########           **
 **            ##    ##     ## ##     ## ##       ##   ##     ##              **
 **            ##    ##     ## ##     ## ######   #######     ##              **
 **            ##    ##     ## ##     ## ##       ##          ##              **
 **            ##    #######   #######   ##       ##          ##              **
 **                                                                           **
 *******************************************************************************
 KERNEL|                                                                    FULL
 FUNCTIONAL| BECKE88:
 FUNCTIONAL| A. Becke, Phys. Rev. A 38, 3098 (1988) {LDA version}               
 FUNCTIONAL| LYP:
 FUNCTIONAL| C. Lee, W. Yang, R.G. Parr, Phys. Rev. B, 37, 785 (1988) {LDA versi
 FUNCTIONAL| on}                                                                
 FUNCTIONAL| VWN:
 FUNCTIONAL| S. H. Vosko, L. Wilk and M. Nusair, Can. J. Phys. 58, 1200 (1980) {
 FUNCTIONAL| LDA version}                                                       
 FUNCTIONAL| XALPHA:
 FUNCTIONAL| Dirac/Slater local exchange; parameter=  0.666 {LDA}               
 KERNEL|                                                          Exact Exchange
 KERNEL| Spin symmetry of excitations                                    Singlet
 TDDFPT| Number of states calculated                                           9
 TDDFPT| Number of Davidson iterations                                       100
 TDDFPT| Davidson iteration convergence                                0.367E-09
 TDDFPT| Max. number of Krylov space vectors                                5000
 TDDFPT| Molecular Orbitals:        Spin       AOs       Occ      Virt     Total
 TDDFPT|                               1       210        21       189       210
 
 -------------------------------------------------------------------------------
 -                            TDDFPT Initial Guess                             -
 -------------------------------------------------------------------------------
          State         Occupied      ->      Virtual          Excitation
          number         orbital              orbital          energy (eV)
 -------------------------------------------------------------------------------
             1               21                   22              3.17107
             2               21                   23              4.70517
             3               20                   22              4.97775
             4               19                   22              5.51446
             5               20                   23              6.51185
             6               21                   24              6.65215
             7               18                   22              6.82877
             8               21                   25              6.91134
             9               19                   23              7.04856

      Number of active states:                                       3969
 -------------------------------------------------------------------------------
 
 -------------------------------------------------------------------------------
 -                      TDDFPT WAVEFUNCTION OPTIMIZATION                       -
 -------------------------------------------------------------------------------

          Step            Time         Convergence           Conv. states
 -------------------------------------------------------------------------------

    State    Exc. energy (eV)      Convergence (eV)
        1       1.9227778            -1.2483E+00
        2       3.3859465            -1.3192E+00
        3       3.7887665            -1.1890E+00
        4       5.1393256            -3.7514E-01
        5       5.7880409            -7.2381E-01
        6       5.9603805            -6.9177E-01
        7       6.2939845            -5.3478E-01
        8       8.0337017             1.1224E+00
        9       9.1212446             2.0727E+00

             1             7.1          7.6170E-02                      0

    State    Exc. energy (eV)      Convergence (eV)
        1       1.8549959            -6.7782E-02
        2       3.3237233            -6.2223E-02
        3       3.6911221            -9.7644E-02
        4       5.0635342            -7.5791E-02
        5       5.4981578            -2.8988E-01
        6       5.7944895            -1.6589E-01
        7       5.9629680            -3.3102E-01
        8       6.5847306            -1.4490E+00
        9       8.0801277            -1.0411E+00

             2             7.1          5.3249E-02                      0

    State    Exc. energy (eV)      Convergence (eV)
        1       1.8489012            -6.0946E-03
        2       3.3170256            -6.6977E-03
        3       3.6863550            -4.7671E-03
        4       5.0564732            -7.0610E-03
        5       5.4516387            -4.6519E-02
        6       5.7807320            -1.3757E-02
        7       5.9189427            -4.4025E-02
        8       6.3503433            -2.3439E-01
        9       6.6234612            -1.4567E+00

             3             7.1          5.3532E-02                      0

    State    Exc. energy (eV)      Convergence (eV)
        1       1.8487244            -1.7684E-04
        2       3.3167930            -2.3255E-04
        3       3.6862636            -9.1372E-05
        4       5.0562609            -2.1228E-04
        5       5.4504227            -1.2160E-03
        6       5.7793676            -1.3645E-03
        7       5.9113218            -7.6209E-03
        8       6.3107820            -3.9561E-02
        9       6.3979234            -2.2554E-01

             4             7.1          8.2884E-03                      0

    State    Exc. energy (eV)      Convergence (eV)
        1       1.8487228            -1.5687E-06
        2       3.3167895            -3.4895E-06
        3       3.6862622            -1.4057E-06
        4       5.0562543            -6.6853E-06
        5       5.4504046            -1.8145E-05
        6       5.7793268            -4.0755E-05
        7       5.9111136            -2.0816E-04
        8       6.3079298            -2.8522E-03
        9       6.3939767            -3.9467E-03

             5             7.1          1.4504E-04                      0

    State    Exc. energy (eV)      Convergence (eV)
        1       1.8487228            -1.5004E-08
        2       3.3167895            -4.0509E-08
        3       3.6862622            -2.0130E-08
        4       5.0562541            -1.3396E-07
        5       5.4504042            -4.1603E-07
        6       5.7793254            -1.4623E-06
        7       5.9111077            -5.9043E-06
        8       6.3077834            -1.4639E-04
        9       6.3937519            -2.2487E-04

             6             7.1          8.2640E-06                      0

    State    Exc. energy (eV)      Convergence (eV)
        1       1.8487228            -6.8306E-11
        2       3.3167895            -3.9580E-10
        3       3.6862622            -1.1566E-10
        4       5.0562541            -1.4855E-09
        5       5.4504042            -7.2567E-09
        6       5.7793253            -3.7849E-08
        7       5.9111076            -1.3966E-07
        8       6.3077786            -4.8059E-06
        9       6.3937432            -8.6775E-06

             7             7.1          3.1889E-07                      5

    State    Exc. energy (eV)      Convergence (eV)
        1       1.8487228            -2.9078E-13
        2       3.3167895            -3.3262E-12
        3       3.6862622            -9.7958E-13
        4       5.0562541            -1.5747E-11
        5       5.4504042            -7.6535E-11
        6       5.7793253            -7.0632E-10
        7       5.9111076            -2.9052E-09
        8       6.3077785            -1.2012E-07
        9       6.3937430            -2.2485E-07

             8             7.1          8.2631E-09                      7

    State    Exc. energy (eV)      Convergence (eV)
        1       1.8487228            -7.9303E-15
        2       3.3167895            -2.5301E-14
        3       3.6862622            -1.6616E-14
        4       5.0562541            -1.8655E-13
        5       5.4504042            -9.6070E-13
        6       5.7793253            -9.6523E-12
        7       5.9111076            -4.5998E-11
        8       6.3077785            -3.1116E-09
        9       6.3937429            -5.7277E-09

             9             7.0          2.1049E-10                      9
 ------------------------- Restart Davidson iterations -------------------------

    State    Exc. energy (eV)      Convergence (eV)
        1       1.8487228             5.2869E-15
        2       3.3167895             1.1329E-15
        3       3.6862622             9.0632E-15
        4       5.0562541             1.1329E-14
        5       5.4504042             2.2658E-15
        6       5.7793253             9.0632E-14
        7       5.9111076             1.0574E-14
        8       6.3077785             1.6616E-14
        9       6.3937429            -2.2658E-14

            10             7.0          3.3307E-15                      9
 
 -------------------------------------------------------------------------------
 -  TDDFPT run converged in 10 iteration(s) 
 -------------------------------------------------------------------------------

 R-TDDFPT states of multiplicity 1
 Transition dipoles calculated using length formulation

         State    Excitation        Transition dipole (a.u.)        Oscillator
         number   energy (eV)       x           y           z     strength (a.u.)
         ------------------------------------------------------------------------
 TDDFPT|      1       1.84872   3.7755E-02  1.3196E-01 -9.9417E-02   1.30093E-03
 TDDFPT|      2       3.31679  -1.6494E-01  2.8392E-02 -7.2430E-02   2.70253E-03
 TDDFPT|      3       3.68626  -3.0769E-02  2.1101E-01  1.8459E-02   4.13729E-03
 TDDFPT|      4       5.05625  -6.7990E-02 -1.0823E-02 -5.7085E-02   9.90833E-04
 TDDFPT|      5       5.45040  -1.0299E-01 -2.4676E-01 -5.3113E-01   4.72158E-02
 TDDFPT|      6       5.77933   3.7962E-02  1.3961E-01 -5.9317E-01   5.27820E-02
 TDDFPT|      7       5.91111   1.5250E-02 -1.1065E-01  8.9902E-02   2.97733E-03
 TDDFPT|      8       6.30778   1.9807E-01  4.0972E-01  7.2960E-01   1.14269E-01
 TDDFPT|      9       6.39374  -1.0904E-01  3.5781E-01 -1.3048E+00   2.88616E-01

 TDDFPT : CheckSum  =  0.560099E+00
 
 -------------------------------------------------------------------------------
 -                            Excitation analysis                              -
 -------------------------------------------------------------------------------
        State             Occupied              Virtual             Excitation
        number             orbital              orbital             amplitude
 -------------------------------------------------------------------------------
             1   1.84872 eV
                                21                   22              -0.996596
             2   3.31679 eV
                                21                   23              -0.994271
             3   3.68626 eV
                                20                   22              -0.978960
                                19                   22              -0.126855
                                18                   22              -0.098444
                                21                   23              -0.050037
             4   5.05625 eV
                                20                   23               0.973427
                                19                   23               0.126356
                                21                   25              -0.113331
                                21                   26               0.100364
                                21                   28               0.055225
             5   5.45040 eV
                                19                   22              -0.650794
                                18                   22              -0.503834
                                19                   23               0.366822
                                21                   25               0.316987
                                18                   23              -0.208752
                                21                   24              -0.092107
                                20                   22               0.088390
                                21                   28              -0.068819
                                21                   26              -0.053525
             6   5.77933 eV
                                21                   24               0.876198
                                21                   25              -0.328365
                                18                   22              -0.253453
                                21                   26               0.145593
                                20                   23              -0.111270
                                19                   23               0.072208
                                18                   23              -0.062844
                                21                   23              -0.050961
             7   5.91111 eV
                                21                   25               0.648473
                                21                   24               0.444070
                                21                   26              -0.402048
                                18                   22               0.308329
                                19                   23              -0.243361
                                20                   23               0.146195
                                19                   22              -0.114612
                                18                   23               0.087868
                                21                   27               0.080912
                                17                   22               0.054730
                                21                   28              -0.054406
             8   6.30778 eV
                                21                   26              -0.545113
                                19                   22               0.541220
                                18                   22              -0.461572
                                19                   23               0.326550
                                18                   23               0.125092
                                21                   25               0.095689
                                16                   22               0.089669
                                21                   28               0.075255
                                20                   22              -0.055522
             9   6.39374 eV
                                21                   26              -0.682964
                                21                   25              -0.561582
                                19                   22              -0.302354
                                19                   23              -0.226875
                                18                   23              -0.140027
                                21                   28              -0.124070
                                18                   22               0.067360
                                21                   24              -0.065260
                                21                   27               0.058408
                                17                   22               0.051613
 -------------------------------------------------------------------------------
 
 -------------------------------------------------------------------------------
 -                            Natural Orbital analysis                         -
 -------------------------------------------------------------------------------
   STATE NR.      1             1.84872 eV
     Particle-Hole state: 1   Spin:1     Eigenvalue: 0.99711   Sum Eigv: 0.99711
   STATE NR.      2             3.31679 eV
     Particle-Hole state: 1   Spin:1     Eigenvalue: 0.99417   Sum Eigv: 0.99417
   STATE NR.      3             3.68626 eV
     Particle-Hole state: 1   Spin:1     Eigenvalue: 0.98717   Sum Eigv: 0.98717
   STATE NR.      4             5.05625 eV
     Particle-Hole state: 1   Spin:1     Eigenvalue: 0.96814   Sum Eigv: 0.96814
     Particle-Hole state: 2   Spin:1     Eigenvalue: 0.02887   Sum Eigv: 0.99702
   STATE NR.      5             5.45040 eV
     Particle-Hole state: 1   Spin:1     Eigenvalue: 0.72177   Sum Eigv: 0.72177
     Particle-Hole state: 2   Spin:1     Eigenvalue: 0.14776   Sum Eigv: 0.86954
     Particle-Hole state: 3   Spin:1     Eigenvalue: 0.12193   Sum Eigv: 0.99147
   STATE NR.      6             5.77933 eV
     Particle-Hole state: 1   Spin:1     Eigenvalue: 0.90589   Sum Eigv: 0.90589
     Particle-Hole state: 2   Spin:1     Eigenvalue: 0.07022   Sum Eigv: 0.97610
   STATE NR.      7             5.91111 eV
     Particle-Hole state: 1   Spin:1     Eigenvalue: 0.79246   Sum Eigv: 0.79246
     Particle-Hole state: 2   Spin:1     Eigenvalue: 0.15353   Sum Eigv: 0.94599
     Particle-Hole state: 3   Spin:1     Eigenvalue: 0.04999   Sum Eigv: 0.99597
   STATE NR.      8             6.30778 eV
     Particle-Hole state: 1   Spin:1     Eigenvalue: 0.56212   Sum Eigv: 0.56212
     Particle-Hole state: 2   Spin:1     Eigenvalue: 0.32516   Sum Eigv: 0.88728
     Particle-Hole state: 3   Spin:1     Eigenvalue: 0.09176   Sum Eigv: 0.97904
   STATE NR.      9             6.39374 eV
     Particle-Hole state: 1   Spin:1     Eigenvalue: 0.81180   Sum Eigv: 0.81180
     Particle-Hole state: 2   Spin:1     Eigenvalue: 0.15183   Sum Eigv: 0.96364
     Particle-Hole state: 3   Spin:1     Eigenvalue: 0.02682   Sum Eigv: 0.99045
 -------------------------------------------------------------------------------
 Ground state orbital alignment:         1.000000[MinVal]      1.000000[Average]
 Excitation vector alignment:                                           1.000000
 Calculate properties for state:   1      with excitation energy      1.84872 eV

  HFX_MEM_INFO| Number of cart. primitive DERIV's calculated:        11031140940
  HFX_MEM_INFO| Number of sph. DERIV's calculated:                    2831942292
  HFX_MEM_INFO| Number of sph. DERIV's stored in-core:                         0
  HFX_MEM_INFO| Number of sph. DERIV's calculated on the fly:         2831942292
  HFX_MEM_INFO| Total memory consumption DERIV's RAM [MiB]:                    0
  HFX_MEM_INFO| Whereof max-vals [MiB]:                                        1
  HFX_MEM_INFO| Total compression factor DERIV's RAM:                       0.00

 !--------------------------- Excited State Energy ----------------------------!
 Results for Excited State Nr.                                                 1
 Excitation Energy [Hartree]                                        0.0679393168
 Total Energy [Hartree]                                          -264.0454071301
 !-----------------------------------------------------------------------------!

[...]
 # MPI messages exchanged                  136608
 MPI messages size (bytes):
  total size                         1.042079E+09
  min size                           0.000000E+00
  max size                          31.744000E+03
  average size                       7.628247E+03
 MPI breakdown and total messages size (bytes):
             size <=      128               76398                        0
       128 < size <=     8192               11106                 76260240
      8192 < size <=    32768               49104                965819232
     32768 < size <=   131072                   0                        0
    131072 < size <=  4194304                   0                        0
   4194304 < size <= 16777216                   0                        0
  16777216 < size                               0                        0
 -------------------------------------------------------------------------------
 -                                                                             -
 -                      DBCSR MESSAGE PASSING PERFORMANCE                      -
 -                                                                             -
 -------------------------------------------------------------------------------
 ROUTINE             CALLS      AVE VOLUME [Bytes]
 MP_Bcast               28                     12.
 MP_Allreduce         6119                      8.
 MP_Alltoall         23772                   2763.
 MP_ISend            22764                   3587.
 MP_IRecv            22764                   3298.
 -------------------------------------------------------------------------------

 -------------------------------------------------------------------------------
 -                                                                             -
 -                                DBM STATISTICS                               -
 -                                                                             -
 -------------------------------------------------------------------------------
    M  x    N  x    K                                          COUNT     PERCENT
 -------------------------------------------------------------------------------

 -------------------------------------------------------------------------------
 -                                                                             -
 -                                GRID STATISTICS                              -
 -                                                                             -
 -------------------------------------------------------------------------------
 LP    KERNEL             BACKEND                              COUNT     PERCENT
 1     collocate ortho    CPU                                 247292      15.94%
 2     collocate ortho    CPU                                 201083      12.96%
 1     integrate ortho    CPU                                 190532      12.28%
 0     collocate ortho    CPU                                 172176      11.10%
 2     integrate ortho    CPU                                 158997      10.25%
 3     collocate ortho    CPU                                 135884       8.76%
 0     integrate ortho    CPU                                 128112       8.26%
 3     integrate ortho    CPU                                 108732       7.01%
 4     collocate ortho    CPU                                  58236       3.75%
 4     integrate ortho    CPU                                  48484       3.13%
 4     collocate general  CPU                                  20448       1.32%
 5     collocate ortho    CPU                                  17724       1.14%
 5     integrate ortho    CPU                                  15396       0.99%
 4     integrate general  CPU                                  15072       0.97%
 2     collocate general  CPU                                  13632       0.88%
 2     integrate general  CPU                                  10048       0.65%
 6     collocate ortho    CPU                                   4431       0.29%
 6     integrate ortho    CPU                                   3969       0.26%
 5     integrate general  CPU                                    384       0.02%
 3     integrate general  CPU                                    256       0.02%
 7     integrate ortho    CPU                                    168       0.01%
 0     collocate general  CPU                                    160       0.01%
 0     integrate general  CPU                                    160       0.01%
 -------------------------------------------------------------------------------

 MEMORY| Estimated peak process memory [MiB]                                1278

 -------------------------------------------------------------------------------
 ----                             MULTIGRID INFO                            ----
 -------------------------------------------------------------------------------
 count for grid        1:         109552          cutoff [a.u.]          200.00
 count for grid        2:          22505          cutoff [a.u.]           66.67
 count for grid        3:           8627          cutoff [a.u.]           22.22
 count for grid        4:           1858          cutoff [a.u.]            7.41
 total gridlevel count  :         142542

 -------------------------------------------------------------------------------
 -                                                                             -
 -                         MESSAGE PASSING PERFORMANCE                         -
 -                                                                             -
 -------------------------------------------------------------------------------

 ROUTINE             CALLS      AVE VOLUME [Bytes]
 MP_Group                5
 MP_Bcast             4734                 991332.
 MP_Allreduce        13675                 149686.
 MP_Sync              1326
 MP_Alltoall          4152               15064569.
 MP_SendRecv          9555                 233957.
 MP_ISendRecv        15120                 127181.
 MP_Wait             32586
 MP_comm_split          48
 MP_ISend            15047                 822536.
 MP_IRecv            15212                 813197.
 -------------------------------------------------------------------------------


 -------------------------------------------------------------------------------
 -                                                                             -
 -                           R E F E R E N C E S                               -
 -                                                                             -
 -------------------------------------------------------------------------------
 
 CP2K version 2024.1 (Development Version), the CP2K developers group (2024).
 CP2K is freely available from https://www.cp2k.org/ .

 Kuehne,Thomas D.; Iannuzzi,Marcella; Del Ben,Mauro;
 Rybkin,Vladimir V.; Seewald,Patrick; Stein,Frederick; Laino,Teodoro;
 Khaliullin,Rustam Z.; Schuett,Ole; Schiffmann,Florian; Golze,Dorothea;
 Wilhelm,Jan; Chulkov,Sergey; Bani-Hashemian,Mohammad Hossein;
 Weber,Valery; Borstnik,Urban; Taillefumier,Mathieu;
 Jakobovits,Alice Shoshana; Lazzaro,Alfio; Pabst,Hans; Mueller,Tiziano;
 Schade,Robert; Guidon,Manuel; Andermatt,Samuel; Holmberg,Nico;
 Schenter,Gregory K.; Hehn,Anna; Bussy,Augustin; Belleflamme,Fabian;
 Tabacchi,Gloria; Gloess,Andreas; Lass,Michael; Bethune,Iain;
 Mundy,Christopher J.; Plessl,Christian; Watkins,Matt;
 VandeVondele,Joost; Krack,Matthias; Hutter,Juerg. 
 The Journal of Chemical Physics, 152 (19), (2020). 
 CP2K: An electronic structure and molecular dynamics software package -
 Quickstep: Efficient and accurate electronic structure calculations.
 https://doi.org/10.1063/5.0007045

 Goerigk, Lars; Hansen, Andreas; Bauer, Christoph; Ehrlich, Stephan;
 Najibi, Asim; Grimme, Stefan. , 19 (48), (2017). 
 A look at the density functional theory zoo with the advanced GMTKN55 database
 for general main group thermochemistry, kinetics and noncovalent interactions.
 https://doi.org/10.1039/C7CP04913G

 Schuett, Ole; Messmer, Peter; Hutter, Juerg; VandeVondele, Joost. 
 Electronic Structure Calculations on Graphics Processing Units, John
 Wiley & Sons, Ltd, 173-190 (2016). 
 GPU-Accelerated Sparse Matrix-Matrix Multiplication for
 Linear Scaling Density Functional Theory.
 https://doi.org/10.1002/9781118670712.ch8

 Heinecke, A; Henry, G; Hutchinson, M; Pabst, H. 
 Proceedings of Intl. Supercomputing Conference, 981-991 (2016). 
 LIBXSMM: Accelerating Small Matrix Multiplications
 by Runtime Code Generation.
 https://doi.org/10.1109/SC.2016.83

 Borstnik, U; VandeVondele, J; Weber, V; Hutter, J. 
 PARALLEL COMPUTING, 40 (5-6), 47-58 (2014). 
 Sparse matrix multiplication: The distributed block-compressed sparse
 row library.
 https://doi.org/10.1016/j.parco.2014.03.012

 Hutter, J; Iannuzzi, M; Schiffmann, F; VandeVondele, J. 
 WIREs Comput Mol Sci., 4 (1), 15-25 (2014). 
 CP2K: atomistic simulations of condensed matter systems.
 https://doi.org/10.1002/wcms.1159

 Grimme, S; Ehrlich, S; Goerigk, L. 
 JOURNAL OF COMPUTATIONAL CHEMISTRY, 32, 1456 (2011). 
 Effect of the damping function in dispersion corrected density functional theory.
 https://doi.org/10.1002/jcc.21759

 Grimme, S; Antony, J; Ehrlich, S; Krieg, H. 
 JOURNAL OF CHEMICAL PHYSICS, 132 (15), 154104 (2010). 
 A consistent and accurate ab initio parametrization of density
 functional dispersion correction (DFT-D) for the 94 elements H-Pu.
 https://doi.org/10.1063/1.3382344

 Guidon, M; Hutter, J; VandeVondele, J. 
 JOURNAL OF CHEMICAL THEORY AND COMPUTATION, 5 (11), 3010-3021 (2009). 
 Robust Periodic Hartree-Fock Exchange for Large-Scale Simulations Using
 Gaussian Basis Sets.
 https://doi.org/10.1021/ct900494g

 Guidon, M; Schiffmann, F; Hutter, J; VandeVondele, J. 
 JOURNAL OF CHEMICAL PHYSICS, 128 (21), 214104 (2008). 
 Ab initio molecular dynamics using hybrid density functionals.
 https://doi.org/10.1063/1.2931945

 VandeVondele, J; Hutter, J. 
 JOURNAL OF CHEMICAL PHYSICS, 127 (11), 114105 (2007). 
 Gaussian basis sets for accurate calculations on molecular systems in
 gas and condensed phases.
 https://doi.org/10.1063/1.2770708

 Frigo, M; Johnson, SG. 
 PROCEEDINGS OF THE IEEE, 93 (2), 216-231 (2005). 
 The design and implementation of FFTW3.
 https://doi.org/10.1109/JPROC.2004.840301

 Iannuzzi, M; Chassaing, T; Wallman, T; Hutter, J. 
 CHIMIA, 59 (7-8), 499-503 (2005). 
 Ground and excited state density functional calculations with the
 Gaussian and augmented-plane-wave method.
 https://doi.org/10.2533/000942905777676164

 VandeVondele, J; Hutter, J. 
 JOURNAL OF CHEMICAL PHYSICS, 118 (10), 4365-4369 (2003). 
 An efficient orbital transformation method for electronic structure
 calculations.
 https://doi.org/10.1063/1.1543154

 Martin,Richard L.. 
 The Journal of Chemical Physics, 118 (11), 4775-4777 (2003). 
 Natural transition orbitals.
 https://doi.org/10.1063/1.1558471

 Lippert, G; Hutter, J; Parrinello, M. 
 THEORETICAL CHEMISTRY ACCOUNTS, 103 (2), 124-140 (1999). 
 The Gaussian and augmented-plane-wave density functional method for ab
 initio molecular dynamics simulations.
 https://doi.org/10.1007/s002140050523

 Krack, M; Parrinello, M. 
 PHYSICAL CHEMISTRY CHEMICAL PHYSICS, 2 (10), 2105-2112 (2000). 
 All-electron ab-initio molecular dynamics.
 https://doi.org/10.1039/b001167n

 Martyna, GJ; Tuckerman, ME. 
 JOURNAL OF CHEMICAL PHYSICS, 110 (6), 2810-2821 (1999). 
 A reciprocal space based method for treating long range interactions in
 ab initio and force-field-based calculations in clusters.
 https://doi.org/10.1063/1.477923

 BECKE, AD. PHYSICAL REVIEW A, 38 (6), 3098-3100 (1988). 
 DENSITY-FUNCTIONAL EXCHANGE-ENERGY APPROXIMATION WITH CORRECT
 ASYMPTOTIC-BEHAVIOR.
 https://doi.org/10.1103/PhysRevA.38.3098

 LEE, CT; YANG, WT; PARR, RG. 
 PHYSICAL REVIEW B, 37 (2), 785-789 (1988). 
 DEVELOPMENT OF THE COLLE-SALVETTI CORRELATION-ENERGY FORMULA INTO A
 FUNCTIONAL OF THE ELECTRON-DENSITY.
 https://doi.org/10.1103/PhysRevB.37.785

 VOSKO, SH; WILK, L; NUSAIR, M. 
 CANADIAN JOURNAL OF PHYSICS, 58 (8), 1200-1211 (1980). 
 ACCURATE SPIN-DEPENDENT ELECTRON LIQUID CORRELATION ENERGIES FOR LOCAL
 SPIN-DENSITY CALCULATIONS - A CRITICAL ANALYSIS.
 https://doi.org/10.1139/p80-159


 -------------------------------------------------------------------------------
 -                                                                             -
 -                                T I M I N G                                  -
 -                                                                             -
 -------------------------------------------------------------------------------
 SUBROUTINE                       CALLS  ASD         SELF TIME        TOTAL TIME
                                MAXIMUM       AVERAGE  MAXIMUM  AVERAGE  MAXIMUM
 CP2K                                 1  1.0    0.010    0.013  182.367  182.367
 qs_forces                            1  2.0    0.000    0.001  181.804  181.805
 qs_energies                          1  3.0    0.000    0.000  109.778  109.778
 qs_energies_properties               1  4.0    0.000    0.000   95.421   95.421
 tddfpt                               1  5.0    0.000    0.000   95.421   95.421
 tddfpt_energies                      1  6.0    0.000    0.000   71.366   71.366
 tddfpt_davidson_solver               2  7.0    0.001    0.002   70.878   70.878
 tddfpt_compute_Aop_evects           10  8.0    0.000    0.000   70.691   70.692
 excited_state_energy                 2  3.5    0.001    0.002   62.810   62.810
 fft_wrap_pw1pw2                   3756 12.0    0.024    0.028   52.525   55.333
 fft_wrap_pw1pw2_200               2627 13.4    1.906    1.965   51.003   53.996
 response_equation                    1  4.0    0.000    0.000   48.187   48.187
 linres_solver                        1  5.0    0.001    0.003   48.164   48.164
 apply_op                            50  6.0    0.001    0.001   48.113   48.113
 fhxc_kernel                         10  9.0    0.002    0.003   44.892   44.892
 fft3d_ps                          3756 14.0   24.113   26.159   39.500   42.891
 integrate_four_center              250 10.5    0.040    0.042   38.683   38.691
 integrate_four_center_main         250 11.5    0.016    0.020   34.953   36.447
 integrate_four_center_bin        23750 12.5   34.937   36.434   34.937   36.434
 derivatives_four_center              4  8.5    0.003    0.004   34.328   34.814
 derivatives_four_center_main         4  9.5    0.000    0.000   34.268   34.754
 derivatives_four_center_bin        412 10.5   32.774   34.190   32.774   34.190
 xc_pw_derive                      1362 12.4    0.009    0.009   29.402   30.628
 apply_op_2_dft                      49  7.0    0.002    0.003   28.644   28.749
 tddfpt_apply_hfx                    10  9.0    0.001    0.001   25.741   25.741
 tddft_hfx_matrix                   180 10.0    0.003    0.003   25.484   25.484
 tddfpt_forces_main                   1  6.0    0.000    0.000   24.002   24.002
 tddfpt_forces                        1  7.0    0.000    0.000   23.099   23.099
 tddfpt_force_direct                  1  8.0    0.000    0.000   22.692   22.692
 tddfpt_kernel_force                  1  9.0    0.000    0.000   22.686   22.686
 fhxc_force                           1 10.0    0.001    0.001   22.686   22.686
 rebuild_ks_matrix                   17  6.8    0.000    0.000   22.029   22.029
 qs_ks_build_kohn_sham_matrix        17  7.8    0.002    0.002   22.029   22.029
 prepare_gapw_den                   217  8.6    0.004    0.004   21.424   21.542
 xc_pw_divergence                   201 12.3    0.004    0.004   17.260   18.550
 qs_fxc_analytic                     50  8.0    0.001    0.002   16.305   16.396
 mp_alltoall_z22v                  3756 16.0    9.517   15.937    9.517   15.937
 calculate_rho_elec                 211  9.4    0.162    0.171   15.616   15.621
 qs_rho_update_rho_low              206  8.5    0.002    0.002   15.601   15.602
 tddfpt_apply_xc_analytic            90 10.0    0.606    0.665   15.191   15.298
 response_force                       1  4.0    0.004    0.007   14.621   14.622
 scf_env_do_scf                       1  4.0    0.000    0.000   14.215   14.215
 hfx_ks_matrix                       17  8.8    0.000    0.000   14.192   14.192
 xc_rho_set_and_dset_create         112 12.0    1.128    1.262   12.057   14.130
 xc_calc_2nd_deriv_analytical       737 11.0    1.134    1.277   13.219   13.373
 density_rs2pw                      211 10.4    0.006    0.007   12.359   12.934
 qs_ks_update_qs_env                 18  6.0    0.000    0.000   12.848   12.848
 yz_to_x                           1928 15.2    2.625    2.993    8.605   12.242
 xc_calc_2nd_deriv                   51  8.9    0.351    0.394   10.375   11.686
 qs_vxc_create                       60 11.8    0.001    0.001   11.604   11.608
 xc_vxc_pw_create                    60 12.8    0.102    0.109   11.603   11.607
 integrate_v_rspace                 165  9.3    0.003    0.003   10.956   11.545
 calculate_rho0_atom                639  9.6   10.780   11.341   10.780   11.341
 scf_env_do_scf_inner_loop           16  5.0    0.000    0.001   10.344   10.344
 x_to_yz                           1828 14.9    3.201    3.621    6.738    9.529
 qs_ks_update_qs_env_forces           1  3.0    0.000    0.000    9.181    9.181
 tddfpt_apply_coulomb                90 10.0    0.001    0.001    7.538    8.355
 potential_pw2rs                    165 10.3    0.010    0.010    7.755    8.340
 qs_fgxc_gdiff                        1 11.0    0.000    0.000    8.278    8.279
 qs_fxc_fdiff                         7 12.0    0.000    0.001    8.258    8.259
 xc_prep_2nd_deriv                   52  8.9    0.000    0.000    6.356    7.444
 apply_hfx                           49  7.0    0.001    0.001    6.987    6.995
 hfx_matrix                          49  8.0    0.001    0.001    6.984    6.991
 put_rho0_on_grid                   213  9.6    0.188    0.219    6.826    6.967
 pw_gather_p                       1928 14.2    5.792    6.358    5.792    6.358
 transfer_rs2pw                    1058 11.3    0.007    0.009    5.712    6.265
 transfer_pw2rs                     822 11.2    0.004    0.005    5.362    5.379
 transfer_rs2pw_200                 425 12.0    2.431    2.496    4.626    5.237
 integrate_vhg0_rspace              161  9.8    0.944    1.038    5.007    5.014
 xc_functional_eval                3136 11.9    0.003    0.005    2.581    4.632
 pw_poisson_solve                   162  9.7    0.002    0.002    3.600    4.547
 mp_sum_d                          2200  9.0    2.697    4.231    2.697    4.231
 transfer_pw2rs_200                 327 12.0    2.088    2.107    4.189    4.229
 mp_waitany                       15040 13.0    3.294    3.947    3.294    3.947
 init_scf_loop                        1  5.0    0.000    0.000    3.871    3.871
 calculate_rho_atom                 651  9.6    2.221    3.729    2.222    3.729
 p_env_update_rho                    49  7.0    0.000    0.000    3.703    3.704
 -------------------------------------------------------------------------------

 The number of warnings for this run is : 0
 
 -------------------------------------------------------------------------------
  **** **** ******  **  PROGRAM ENDED AT                 2025-01-06 00:28:01.211
 ***** ** ***  *** **   PROGRAM RAN ON                               nesh-srp159
 **    ****   ******    PROGRAM RAN BY                                  suphc356
 ***** **    ** ** **   PROGRAM PROCESS ID                               4072504
  **** **  *******  **  PROGRAM STOPPED IN /gxfs_work/cau/suphc356/NEWTONX_proje
                                           ct/Pyrazin_molecule/CP2K_GAPW_B3LYP_d
                                           ef2_TZVP/MOLDYN_BA_again/TRAJECTORIES
                                           /TRAJ68/TEMP
