      40
 i =      900, E =      -179.9977749265
  N         0.0309971766        0.0609600134        1.3779135523
  C         0.6354009668        0.9733775629        0.6183052207
  H         1.1356194651        1.7913877366        1.1244715979
  C        -0.6663396635       -0.8381656900        0.6778069074
  H        -1.1325687581       -1.6464784948        1.2313286928
  N         4.4949170310        1.8077837470        0.8539127980
  C         5.4740697003        0.9122073210        1.0090866689
  H         5.3049372828        0.1125870659        1.7230418233
  C         4.7555113272        2.7140849598       -0.0882157762
  H         4.0452986463        3.5250407696       -0.2058408702
  N        -2.6913098766        1.9796617125        3.4331546181
  C        -3.2962629439        2.8799287996        4.2091402340
  H        -3.8357261618        3.6823374844        3.7176026414
  C        -1.9802705216        1.0855209368        4.1257550971
  H        -1.4978603484        0.2932575205        3.5616127809
  N        -6.9132201231        3.7812480520        4.2417033901
  C        -7.9146603941        2.9315100200        4.0067926865
  H        -7.7946161103        2.2423077997        3.1715684641
  C        -7.1532949886        4.6382079143        5.2332016875
  H        -6.3591201088        5.3312193994        5.5001890945
  N        -0.1466686264        0.0936961682       -1.4716789970
  C        -0.8368582841       -0.7582354361       -0.7149052538
  H        -1.5460236084       -1.4203313022       -1.2092403836
  C         0.6316937680        0.9326658237       -0.7871812551
  H         1.2714205811        1.6012574002       -1.3630978200
  N        -4.3431085848       -1.9980899534       -0.6864681014
  C        -5.3497539301       -1.1486452702       -0.8991142834
  H        -5.2488623470       -0.4577491821       -1.7350614161
  C        -4.5615709284       -2.8560305039        0.3095281193
  H        -3.7607755050       -3.5476380222        0.5602823487
  N         2.5628164242       -1.8377606856       -3.5582168869
  C         3.2268837306       -2.6966995323       -4.3329783569
  H         3.9011159104       -3.3970979930       -3.8443472769
  C         1.7983174604       -0.9832541054       -4.2410444472
  H         1.1961233165       -0.2857543681       -3.6612179079
  N         6.9474379797       -3.8611796666       -4.1198809046
  C         7.9217468201       -2.9639006289       -3.9457925721
  H         7.7376753940       -2.1640378716       -3.2363558758
  C         7.2282688586       -4.7660537844       -5.0586240443
  H         6.5200284695       -5.5760234419       -5.1947556529
