 DBCSR| CPU Multiplication driver                                           XSMM (U)
 DBCSR| Multrec recursion limit                                              512 (U)
 DBCSR| Multiplication stack size                                           1000 (D)
 DBCSR| Maximum elements for images                                    UNLIMITED (U)
 DBCSR| Multiplicative factor virtual images                                   1 (U)
 DBCSR| Use multiplication densification                                       T (D)
 DBCSR| Multiplication size stacks                                             3 (U)
 DBCSR| Use memory pool for CPU allocation                                     F (U)
 DBCSR| Number of 3D layers                                               SINGLE (U)
 DBCSR| Use MPI memory allocation                                              F (U)
 DBCSR| Use RMA algorithm                                                      F (U)
 DBCSR| Use Communication thread                                               T (U)
 DBCSR| Communication thread load                                             87 (D)
 DBCSR| MPI: My process id                                                     0
 DBCSR| MPI: Number of processes                                              32
 DBCSR| OMP: Current number of threads                                         1
 DBCSR| OMP: Max number of threads                                             1
 DBCSR| Split modifier for TAS multiplication algorithm                  1.0E+00 (U)


  **** **** ******  **  PROGRAM STARTED AT               2025-01-21 12:38:07.428
 ***** ** ***  *** **   PROGRAM STARTED ON                                  n239
 **    ****   ******    PROGRAM STARTED BY                              suphc356
 ***** **    ** ** **   PROGRAM PROCESS ID                               3102865
  **** **  *******  **  PROGRAM STARTED IN /work_beegfs/suphc356/NEWTONX/Pyrazin
                                           e_crystal_NEW/GPW_PBE_vdW_20/IC_TDDFT
                                           _STDA_again/JOB_AD

 CP2K| version string:                 CP2K version 2024.3 (Development Version)
 CP2K| source code revision number:                                  git:973f3dd
 CP2K| cp2kflags: omp libint fftw3 libxc libgrpp elpa parallel scalapack mpi_f08
 CP2K|             cosma xsmm spglib mkl libvori libbqb
 CP2K| is freely available from                            https://www.cp2k.org/
 CP2K| Program compiled at                          Sat Dec 21 13:16:12 CET 2024
 CP2K| Program compiled on                                           caucluster1
 CP2K| Program compiled for                                                local
 CP2K| Data directory path      /zfshome/suphc356/SOFTWARE/CP2K/cp2k_master/data
 CP2K| Input file name                                                  cp2k.inp

 GLOBAL| Force Environment number                                              1
 GLOBAL| Basis set file name                                        BASIS_MOLOPT
 GLOBAL| Potential file name                                           POTENTIAL
 GLOBAL| MM Potential file name                                     MM_POTENTIAL
 GLOBAL| Coordinate file name                                      __STD_INPUT__
 GLOBAL| Method name                                                        CP2K
 GLOBAL| Project name                                               testsuite_ad
 GLOBAL| Run type                                                         ENERGY
 GLOBAL| FFT library                                                       FFTW3
 GLOBAL| Diagonalization library                                            ELPA
 GLOBAL| DGEMM library                                                      BLAS
 GLOBAL| Minimum number of eigenvectors for ELPA usage                        16
 GLOBAL| Orthonormality check for eigenvectors                          DISABLED
 GLOBAL| Matrix multiplication library                                     COSMA
 GLOBAL| All-to-all communication in single precision                          F
 GLOBAL| FFTs using library dependent lengths                                  F
 GLOBAL| Grid backend                                                       AUTO
 GLOBAL| Global print level                                               MEDIUM
 GLOBAL| MPI I/O enabled                                                       T
 GLOBAL| Total number of message passing processes                            32
 GLOBAL| Number of threads for this process                                    1
 GLOBAL| This output is from process                                           0
 GLOBAL| OpenMP stack size per thread (OMP_STACKSIZE)                       256M
 GLOBAL| CPU model name                          AMD EPYC 7313 16-Core Processor
 GLOBAL| CPUID                                                              1002

 MEMORY| system memory details [Kb]
 MEMORY|                        rank 0           min           max       average
 MEMORY| MemTotal            263978932     263978932     263978932     263978932
 MEMORY| MemFree             235316616     235316616     235316616     235316616
 MEMORY| Buffers               1141588       1141588       1141588       1141588
 MEMORY| Cached                2647796       2647796       2647796       2647796
 MEMORY| Slab                 17870388      17870388      17870388      17870388
 MEMORY| SReclaimable          3169732       3169732       3169732       3169732
 MEMORY| MemLikelyFree       242275732     242275732     242275732     242275732


 *** Fundamental physical constants (SI units) ***

 *** Literature: B. J. Mohr and B. N. Taylor,
 ***             CODATA recommended values of the fundamental physical
 ***             constants: 2006, Web Version 5.1
 ***             http://physics.nist.gov/constants

 Speed of light in vacuum [m/s]                             2.99792458000000E+08
 Magnetic constant or permeability of vacuum [N/A**2]       1.25663706143592E-06
 Electric constant or permittivity of vacuum [F/m]          8.85418781762039E-12
 Planck constant (h) [J*s]                                  6.62606896000000E-34
 Planck constant (h-bar) [J*s]                              1.05457162825177E-34
 Elementary charge [C]                                      1.60217648700000E-19
 Electron mass [kg]                                         9.10938215000000E-31
 Electron g factor [ ]                                     -2.00231930436220E+00
 Proton mass [kg]                                           1.67262163700000E-27
 Fine-structure constant                                    7.29735253760000E-03
 Rydberg constant [1/m]                                     1.09737315685270E+07
 Avogadro constant [1/mol]                                  6.02214179000000E+23
 Boltzmann constant [J/K]                                   1.38065040000000E-23
 Atomic mass unit [kg]                                      1.66053878200000E-27
 Bohr radius [m]                                            5.29177208590000E-11

 *** Conversion factors ***

 [u] -> [a.u.]                                              1.82288848426455E+03
 [Angstrom] -> [Bohr] = [a.u.]                              1.88972613288564E+00
 [a.u.] = [Bohr] -> [Angstrom]                              5.29177208590000E-01
 [a.u.] -> [s]                                              2.41888432650478E-17
 [a.u.] -> [fs]                                             2.41888432650478E-02
 [a.u.] -> [J]                                              4.35974393937059E-18
 [a.u.] -> [N]                                              8.23872205491840E-08
 [a.u.] -> [K]                                              3.15774647902944E+05
 [a.u.] -> [kJ/mol]                                         2.62549961709828E+03
 [a.u.] -> [kcal/mol]                                       6.27509468713739E+02
 [a.u.] -> [Pa]                                             2.94210107994716E+13
 [a.u.] -> [bar]                                            2.94210107994716E+08
 [a.u.] -> [atm]                                            2.90362800883016E+08
 [a.u.] -> [eV]                                             2.72113838565563E+01
 [a.u.] -> [Hz]                                             6.57968392072181E+15
 [a.u.] -> [1/cm] (wave numbers)                            2.19474631370540E+05
 [a.u./Bohr**2] -> [1/cm]                                   5.14048714338585E+03
 

 CELL_TOP| Volume [angstrom^3]:                                       424.784591
 CELL_TOP| Vector a [angstrom    11.252     0.000     0.000   |a| =    11.252000
 CELL_TOP| Vector b [angstrom     0.000     3.831     0.000   |b| =     3.831200
 CELL_TOP| Vector c [angstrom    -5.053     0.000     9.854   |c| =    11.074000
 CELL_TOP| Angle (b,c), alpha [degree]:                                90.000000
 CELL_TOP| Angle (a,c), beta  [degree]:                               117.150000
 CELL_TOP| Angle (a,b), gamma [degree]:                                90.000000
 CELL_TOP| Numerically orthorhombic:                                          NO
 CELL_TOP| Periodicity                                                       XYZ

 CELL| Volume [angstrom^3]:                                           424.784591
 CELL| Vector a [angstrom]:      11.252     0.000     0.000   |a| =    11.252000
 CELL| Vector b [angstrom]:       0.000     3.831     0.000   |b| =     3.831200
 CELL| Vector c [angstrom]:      -5.053     0.000     9.854   |c| =    11.074000
 CELL| Angle (b,c), alpha [degree]:                                    90.000000
 CELL| Angle (a,c), beta  [degree]:                                   117.150000
 CELL| Angle (a,b), gamma [degree]:                                    90.000000
 CELL| Numerically orthorhombic:                                              NO
 CELL| Periodicity                                                           XYZ

 CELL_REF| Volume [angstrom^3]:                                       424.784591
 CELL_REF| Vector a [angstrom    11.252     0.000     0.000   |a| =    11.252000
 CELL_REF| Vector b [angstrom     0.000     3.831     0.000   |b| =     3.831200
 CELL_REF| Vector c [angstrom    -5.053     0.000     9.854   |c| =    11.074000
 CELL_REF| Angle (b,c), alpha [degree]:                                90.000000
 CELL_REF| Angle (a,c), beta  [degree]:                               117.150000
 CELL_REF| Angle (a,b), gamma [degree]:                                90.000000
 CELL_REF| Numerically orthorhombic:                                          NO
 CELL_REF| Periodicity                                                       XYZ

 *******************************************************************************
 *******************************************************************************
 **                                                                           **
 **     #####                         ##              ##                      **
 **    ##   ##            ##          ##              ##                      **
 **   ##     ##                       ##            ######                    **
 **   ##     ##  ##   ##  ##   #####  ##  ##   ####   ##    #####    #####    **
 **   ##     ##  ##   ##  ##  ##      ## ##   ##      ##   ##   ##  ##   ##   **
 **   ##  ## ##  ##   ##  ##  ##      ####     ###    ##   ######   ######    **
 **    ##  ###   ##   ##  ##  ##      ## ##      ##   ##   ##       ##        **
 **     #######   #####   ##   #####  ##  ##  ####    ##    #####   ##        **
 **           ##                                                    ##        **
 **                                                                           **
 **                                                ... make the atoms dance   **
 **                                                                           **
 **            Copyright (C) by CP2K developers group (2000-2024)             **
 **                      J. Chem. Phys. 152, 194103 (2020)                    **
 **                                                                           **
 *******************************************************************************

 DFT| Spin restricted Kohn-Sham (RKS) calculation                            RKS
 DFT| Multiplicity                                                             1
 DFT| Number of spin states                                                    1
 DFT| Charge                                                                   0
 DFT| Self-interaction correction (SIC)                                       NO
 DFT| Cutoffs: density                                              1.000000E-10
 DFT|          gradient                                             1.000000E-10
 DFT|          tau                                                  1.000000E-10
 DFT|          cutoff_smoothing_range                               0.000000E+00
 DFT| XC density smoothing                                                  NONE
 DFT| XC derivatives                                                          PW

 FUNCTIONAL| PBE:
 FUNCTIONAL| J.P.Perdew, K.Burke, M.Ernzerhof, Phys. Rev. Letter, vol. 77, n 18,
 FUNCTIONAL|  pp. 3865-3868, (1996) {spin unpolarized}                          

 vdW POTENTIAL|                                                   Pair Potential
 vdW POTENTIAL|          DFT-D3 (Version 3.1)
 vdW POTENTIAL|          Potential Form: S. Grimme et al, JCP 132: 154104 (2010)
 vdW POTENTIAL|          Zero Damping
 vdW POTENTIAL|          Cutoff Radius [Bohr]:                             37.79
 vdW POTENTIAL|          s6 Scaling Factor:                               1.0000
 vdW POTENTIAL|          sr6 Scaling Factor:                              1.2170
 vdW POTENTIAL|          s8 Scaling Factor:                               0.7220
 vdW POTENTIAL|          Cutoff for CN calculation:                   0.1000E-05

 QS| Method:                                                                 GPW
 QS| Density plane wave grid type                        NON-SPHERICAL FULLSPACE
 QS| Number of grid levels:                                                    4
 QS| Density cutoff [a.u.]:                                                400.0
 QS| Multi grid cutoff [a.u.]: 1) grid level                               400.0
 QS|                           2) grid level                               133.3
 QS|                           3) grid level                                44.4
 QS|                           4) grid level                                14.8
 QS| Grid level progression factor:                                          3.0
 QS| Relative density cutoff [a.u.]:                                        30.0
 QS| Interaction thresholds: eps_pgf_orb:                                3.2E-09
 QS|                         eps_filter_matrix:                          0.0E+00
 QS|                         eps_core_charge:                            1.0E-19
 QS|                         eps_rho_gspace:                             1.0E-17
 QS|                         eps_rho_rspace:                             1.0E-17
 QS|                         eps_gvg_rspace:                             3.2E-09
 QS|                         eps_ppl:                                    1.0E-02
 QS|                         eps_ppnl:                                   3.2E-11


 ATOMIC KIND INFORMATION

  1. Atomic kind: N                                     Number of atoms:       8

     Orbital Basis Set                                        DZVP-MOLOPT-SR-GTH

       Number of orbital shell sets:                                           1
       Number of orbital shells:                                               5
       Number of primitive Cartesian functions:                                5
       Number of Cartesian basis functions:                                   14
       Number of spherical basis functions:                                   13
       Norm type:                                                              2

       Normalised Cartesian orbitals:

                        Set   Shell   Orbital            Exponent    Coefficient

                          1       1    2s                7.341988       0.360561
                                                         2.542637       0.139177
                                                         0.888575      -0.289383
                                                         0.333802      -0.182244
                                                         0.112012      -0.019197

                          1       2    3s                7.341988       0.282000
                                                         2.542637       0.177875
                                                         0.888575      -0.278381
                                                         0.333802       0.008577
                                                         0.112012       0.154176

                          1       3    3px               7.341988      -1.188719
                                                         2.542637      -0.973969
                                                         0.888575      -0.501079
                                                         0.333802      -0.144894
                                                         0.112012      -0.013986
                          1       3    3py               7.341988      -1.188719
                                                         2.542637      -0.973969
                                                         0.888575      -0.501079
                                                         0.333802      -0.144894
                                                         0.112012      -0.013986
                          1       3    3pz               7.341988      -1.188719
                                                         2.542637      -0.973969
                                                         0.888575      -0.501079
                                                         0.333802      -0.144894
                                                         0.112012      -0.013986

                          1       4    4px               7.341988      -0.094798
                                                         2.542637       0.050069
                                                         0.888575      -0.114797
                                                         0.333802       0.144793
                                                         0.112012       0.066710
                          1       4    4py               7.341988      -0.094798
                                                         2.542637       0.050069
                                                         0.888575      -0.114797
                                                         0.333802       0.144793
                                                         0.112012       0.066710
                          1       4    4pz               7.341988      -0.094798
                                                         2.542637       0.050069
                                                         0.888575      -0.114797
                                                         0.333802       0.144793
                                                         0.112012       0.066710

                          1       5    4dx2              7.341988       1.354688
                                                         2.542637       0.690378
                                                         0.888575       0.855359
                                                         0.333802       0.091746
                                                         0.112012       0.001253
                          1       5    4dxy              7.341988       2.346389
                                                         2.542637       1.195770
                                                         0.888575       1.481524
                                                         0.333802       0.158910
                                                         0.112012       0.002169
                          1       5    4dxz              7.341988       2.346389
                                                         2.542637       1.195770
                                                         0.888575       1.481524
                                                         0.333802       0.158910
                                                         0.112012       0.002169
                          1       5    4dy2              7.341988       1.354688
                                                         2.542637       0.690378
                                                         0.888575       0.855359
                                                         0.333802       0.091746
                                                         0.112012       0.001253
                          1       5    4dyz              7.341988       2.346389
                                                         2.542637       1.195770
                                                         0.888575       1.481524
                                                         0.333802       0.158910
                                                         0.112012       0.002169
                          1       5    4dz2              7.341988       1.354688
                                                         2.542637       0.690378
                                                         0.888575       0.855359
                                                         0.333802       0.091746
                                                         0.112012       0.001253

       Atomic covalent radius [Angstrom]:                                  0.750

       Atomic van der Waals radius [Angstrom]:                             1.550

     GTH Potential information for                                    GTH-PBE-q5

       Description:                       Goedecker-Teter-Hutter pseudopotential
                                           Goedecker et al., PRB 54, 1703 (1996)
                                          Hartwigsen et al., PRB 58, 3641 (1998)
                                                      Krack, TCA 114, 145 (2005)

       Gaussian exponent of the core charge distribution:               6.208322
       Electronic configuration (s p d ...):                               2   3

       Parameters of the local part of the GTH pseudopotential:

                          rloc        C1          C2          C3          C4
                        0.283791  -12.415226    1.868096

       Parameters of the non-local part of the GTH pseudopotential:

                   l      r(l)      h(i,j,l)

                   0    0.255405   13.630263
                   1    0.245495

  2. Atomic kind: C                                     Number of atoms:      16

     Orbital Basis Set                                        DZVP-MOLOPT-SR-GTH

       Number of orbital shell sets:                                           1
       Number of orbital shells:                                               5
       Number of primitive Cartesian functions:                                5
       Number of Cartesian basis functions:                                   14
       Number of spherical basis functions:                                   13
       Norm type:                                                              2

       Normalised Cartesian orbitals:

                        Set   Shell   Orbital            Exponent    Coefficient

                          1       1    2s                5.605331       0.322515
                                                         2.113016       0.213043
                                                         0.769911      -0.209686
                                                         0.348157      -0.219794
                                                         0.128212      -0.022789

                          1       2    3s                5.605331       0.552234
                                                         2.113016       0.082072
                                                         0.769911       0.007843
                                                         0.348157       0.136893
                                                         0.128212       0.074283

                          1       3    3px               5.605331      -0.703879
                                                         2.113016      -0.642521
                                                         0.769911      -0.374851
                                                         0.348157      -0.139743
                                                         0.128212      -0.027849
                          1       3    3py               5.605331      -0.703879
                                                         2.113016      -0.642521
                                                         0.769911      -0.374851
                                                         0.348157      -0.139743
                                                         0.128212      -0.027849
                          1       3    3pz               5.605331      -0.703879
                                                         2.113016      -0.642521
                                                         0.769911      -0.374851
                                                         0.348157      -0.139743
                                                         0.128212      -0.027849

                          1       4    4px               5.605331      -0.480376
                                                         2.113016      -0.552894
                                                         0.769911      -0.316145
                                                         0.348157       0.210505
                                                         0.128212       0.076095
                          1       4    4py               5.605331      -0.480376
                                                         2.113016      -0.552894
                                                         0.769911      -0.316145
                                                         0.348157       0.210505
                                                         0.128212       0.076095
                          1       4    4pz               5.605331      -0.480376
                                                         2.113016      -0.552894
                                                         0.769911      -0.316145
                                                         0.348157       0.210505
                                                         0.128212       0.076095

                          1       5    4dx2              5.605331       0.640026
                                                         2.113016       0.274300
                                                         0.769911       0.446711
                                                         0.348157       0.028674
                                                         0.128212       0.029790
                          1       5    4dxy              5.605331       1.108557
                                                         2.113016       0.475102
                                                         0.769911       0.773726
                                                         0.348157       0.049666
                                                         0.128212       0.051599
                          1       5    4dxz              5.605331       1.108557
                                                         2.113016       0.475102
                                                         0.769911       0.773726
                                                         0.348157       0.049666
                                                         0.128212       0.051599
                          1       5    4dy2              5.605331       0.640026
                                                         2.113016       0.274300
                                                         0.769911       0.446711
                                                         0.348157       0.028674
                                                         0.128212       0.029790
                          1       5    4dyz              5.605331       1.108557
                                                         2.113016       0.475102
                                                         0.769911       0.773726
                                                         0.348157       0.049666
                                                         0.128212       0.051599
                          1       5    4dz2              5.605331       0.640026
                                                         2.113016       0.274300
                                                         0.769911       0.446711
                                                         0.348157       0.028674
                                                         0.128212       0.029790

       Atomic covalent radius [Angstrom]:                                  0.770

       Atomic van der Waals radius [Angstrom]:                             1.700

     GTH Potential information for                                    GTH-PBE-q4

       Description:                       Goedecker-Teter-Hutter pseudopotential
                                           Goedecker et al., PRB 54, 1703 (1996)
                                          Hartwigsen et al., PRB 58, 3641 (1998)
                                                      Krack, TCA 114, 145 (2005)

       Gaussian exponent of the core charge distribution:               4.364419
       Electronic configuration (s p d ...):                               2   2

       Parameters of the local part of the GTH pseudopotential:

                          rloc        C1          C2          C3          C4
                        0.338471   -8.803674    1.339211

       Parameters of the non-local part of the GTH pseudopotential:

                   l      r(l)      h(i,j,l)

                   0    0.302576    9.622487
                   1    0.291507

  3. Atomic kind: H                                     Number of atoms:      16

     Orbital Basis Set                                        DZVP-MOLOPT-SR-GTH

       Number of orbital shell sets:                                           1
       Number of orbital shells:                                               3
       Number of primitive Cartesian functions:                                5
       Number of Cartesian basis functions:                                    5
       Number of spherical basis functions:                                    5
       Norm type:                                                              2

       Normalised Cartesian orbitals:

                        Set   Shell   Orbital            Exponent    Coefficient

                          1       1    2s               10.068468      -0.133023
                                                         2.680223      -0.177618
                                                         0.791502      -0.258419
                                                         0.239116      -0.107525
                                                         0.082193      -0.014019

                          1       2    3s               10.068468       0.344673
                                                         2.680223       1.819821
                                                         0.791502      -0.999069
                                                         0.239116       0.017430
                                                         0.082193       0.082660

                          1       3    3px              10.068468       0.155326
                                                         2.680223       0.367157
                                                         0.791502       0.311480
                                                         0.239116       0.080105
                                                         0.082193       0.033440
                          1       3    3py              10.068468       0.155326
                                                         2.680223       0.367157
                                                         0.791502       0.311480
                                                         0.239116       0.080105
                                                         0.082193       0.033440
                          1       3    3pz              10.068468       0.155326
                                                         2.680223       0.367157
                                                         0.791502       0.311480
                                                         0.239116       0.080105
                                                         0.082193       0.033440

       Atomic covalent radius [Angstrom]:                                  0.320

       Atomic van der Waals radius [Angstrom]:                             1.090

     GTH Potential information for                                    GTH-PBE-q1

       Description:                       Goedecker-Teter-Hutter pseudopotential
                                           Goedecker et al., PRB 54, 1703 (1996)
                                          Hartwigsen et al., PRB 58, 3641 (1998)
                                                      Krack, TCA 114, 145 (2005)

       Gaussian exponent of the core charge distribution:              12.500000
       Electronic configuration (s p d ...):                                   1

       Parameters of the local part of the GTH pseudopotential:

                          rloc        C1          C2          C3          C4
                        0.200000   -4.178900    0.724463


 MOLECULE KIND INFORMATION


 All atoms are their own molecule, skipping detailed information


 TOTAL NUMBERS AND MAXIMUM NUMBERS

  Total number of            - Atomic kinds:                                   3
                             - Atoms:                                         40
                             - Shell sets:                                    40
                             - Shells:                                       168
                             - Primitive Cartesian functions:                200
                             - Cartesian basis functions:                    416
                             - Spherical basis functions:                    392

  Maximum angular momentum of- Orbital basis functions:                        2
                             - Local part of the GTH pseudopotential:          2
                             - Non-local part of the GTH pseudopotential:      0


 MODULE QUICKSTEP: ATOMIC COORDINATES IN ANGSTROM

   Atom Kind Element         X             Y             Z       Z(eff)     Mass
      1    1 N     7      0.030997      0.060960      1.377914   5.0000  14.0067
      2    2 C     6      0.635401      0.973378      0.618305   4.0000  12.0107
      3    3 H     1      1.135619      1.791388      1.124472   1.0000   1.0079
      4    2 C     6     -0.666340     -0.838166      0.677807   4.0000  12.0107
      5    3 H     1     -1.132569     -1.646478      1.231329   1.0000   1.0079
      6    1 N     7      4.494917      1.807784      0.853913   5.0000  14.0067
      7    2 C     6      5.474070      0.912207      1.009087   4.0000  12.0107
      8    3 H     1      5.304937      0.112587      1.723042   1.0000   1.0079
      9    2 C     6      4.755511      2.714085     -0.088216   4.0000  12.0107
     10    3 H     1      4.045299      3.525041     -0.205841   1.0000   1.0079
     11    1 N     7     -2.691310      1.979662      3.433155   5.0000  14.0067
     12    2 C     6     -3.296263      2.879929      4.209140   4.0000  12.0107
     13    3 H     1     -3.835726      3.682337      3.717603   1.0000   1.0079
     14    2 C     6     -1.980271      1.085521      4.125755   4.0000  12.0107
     15    3 H     1     -1.497860      0.293258      3.561613   1.0000   1.0079
     16    1 N     7     -6.913220      3.781248      4.241703   5.0000  14.0067
     17    2 C     6     -7.914660      2.931510      4.006793   4.0000  12.0107
     18    3 H     1     -7.794616      2.242308      3.171568   1.0000   1.0079
     19    2 C     6     -7.153295      4.638208      5.233202   4.0000  12.0107
     20    3 H     1     -6.359120      5.331219      5.500189   1.0000   1.0079
     21    1 N     7     -0.146669      0.093696     -1.471679   5.0000  14.0067
     22    2 C     6     -0.836858     -0.758235     -0.714905   4.0000  12.0107
     23    3 H     1     -1.546024     -1.420331     -1.209240   1.0000   1.0079
     24    2 C     6      0.631694      0.932666     -0.787181   4.0000  12.0107
     25    3 H     1      1.271421      1.601257     -1.363098   1.0000   1.0079
     26    1 N     7     -4.343109     -1.998090     -0.686468   5.0000  14.0067
     27    2 C     6     -5.349754     -1.148645     -0.899114   4.0000  12.0107
     28    3 H     1     -5.248862     -0.457749     -1.735061   1.0000   1.0079
     29    2 C     6     -4.561571     -2.856031      0.309528   4.0000  12.0107
     30    3 H     1     -3.760776     -3.547638      0.560282   1.0000   1.0079
     31    1 N     7      2.562816     -1.837761     -3.558217   5.0000  14.0067
     32    2 C     6      3.226884     -2.696700     -4.332978   4.0000  12.0107
     33    3 H     1      3.901116     -3.397098     -3.844347   1.0000   1.0079
     34    2 C     6      1.798317     -0.983254     -4.241044   4.0000  12.0107
     35    3 H     1      1.196123     -0.285754     -3.661218   1.0000   1.0079
     36    1 N     7      6.947438     -3.861180     -4.119881   5.0000  14.0067
     37    2 C     6      7.921747     -2.963901     -3.945793   4.0000  12.0107
     38    3 H     1      7.737675     -2.164038     -3.236356   1.0000   1.0079
     39    2 C     6      7.228269     -4.766054     -5.058624   4.0000  12.0107
     40    3 H     1      6.520028     -5.576023     -5.194756   1.0000   1.0079



 SCF PARAMETERS         Density guess:                                   RESTART
                        --------------------------------------------------------
                        max_scf:                                              10
                        max_scf_history:                                       0
                        max_diis:                                              4
                        --------------------------------------------------------
                        eps_scf:                                        1.00E-09
                        eps_scf_history:                                0.00E+00
                        eps_diis:                                       1.00E-01
                        eps_eigval:                                     1.00E-05
                        --------------------------------------------------------
                        level_shift [a.u.]:                             0.000000
                        --------------------------------------------------------
                        Outer loop SCF in use 
                        No variables optimised in outer loop
                        eps_scf                                         1.00E-09
                        max_scf                                              900
                        No outer loop optimization
                        step_size                                       5.00E-01

 PW_GRID| Information for grid number                                          1
 PW_GRID| Grid distributed over                                    32 processors
 PW_GRID| Real space group dimensions                                    32    1
 PW_GRID| the grid is blocked:                                                NO
 PW_GRID| Cutoff [a.u.]                                                    400.0
 PW_GRID| spherical cutoff:                                                   NO
 PW_GRID|   Bounds   1            -96      95                Points:         192
 PW_GRID|   Bounds   2            -36      35                Points:          72
 PW_GRID|   Bounds   3            -96      95                Points:         192
 PW_GRID| Volume element (a.u.^3)  0.1080E-02     Volume (a.u.^3)      2866.5885
 PW_GRID| Grid span                                                    FULLSPACE
 PW_GRID|   Distribution                         Average         Max         Min
 PW_GRID|   G-Vectors                            82944.0       82944       82944
 PW_GRID|   G-Rays                                 432.0         432         432
 PW_GRID|   Real Space Points                    82944.0       82944       82944

 PW_GRID| Information for grid number                                          2
 PW_GRID| Number of the reference grid                                         1
 PW_GRID| Grid distributed over                                    32 processors
 PW_GRID| Real space group dimensions                                    32    1
 PW_GRID| the grid is blocked:                                                NO
 PW_GRID| Cutoff [a.u.]                                                    133.3
 PW_GRID| spherical cutoff:                                                   NO
 PW_GRID|   Bounds   1            -60      59                Points:         120
 PW_GRID|   Bounds   2            -20      19                Points:          40
 PW_GRID|   Bounds   3            -60      59                Points:         120
 PW_GRID| Volume element (a.u.^3)  0.4977E-02     Volume (a.u.^3)      2866.5885
 PW_GRID| Grid span                                                    FULLSPACE
 PW_GRID|   Distribution                         Average         Max         Min
 PW_GRID|   G-Vectors                            18000.0       18960       16800
 PW_GRID|   G-Rays                                 150.0         158         140
 PW_GRID|   Real Space Points                    18000.0       19200       14400

 PW_GRID| Information for grid number                                          3
 PW_GRID| Number of the reference grid                                         1
 PW_GRID| Grid distributed over                                    32 processors
 PW_GRID| Real space group dimensions                                    32    1
 PW_GRID| the grid is blocked:                                                NO
 PW_GRID| Cutoff [a.u.]                                                     44.4
 PW_GRID| spherical cutoff:                                                   NO
 PW_GRID|   Bounds   1            -32      31                Points:          64
 PW_GRID|   Bounds   2            -12      11                Points:          24
 PW_GRID|   Bounds   3            -32      31                Points:          64
 PW_GRID| Volume element (a.u.^3)  0.2916E-01     Volume (a.u.^3)      2866.5885
 PW_GRID| Grid span                                                    FULLSPACE
 PW_GRID|   Distribution                         Average         Max         Min
 PW_GRID|   G-Vectors                             3072.0        3584        2752
 PW_GRID|   G-Rays                                  48.0          56          43
 PW_GRID|   Real Space Points                     3072.0        3072        3072

 PW_GRID| Information for grid number                                          4
 PW_GRID| Number of the reference grid                                         1
 PW_GRID| Grid distributed over                                    32 processors
 PW_GRID| Real space group dimensions                                    32    1
 PW_GRID| the grid is blocked:                                                NO
 PW_GRID| Cutoff [a.u.]                                                     14.8
 PW_GRID| spherical cutoff:                                                   NO
 PW_GRID|   Bounds   1            -20      19                Points:          40
 PW_GRID|   Bounds   2             -7       7                Points:          15
 PW_GRID|   Bounds   3            -20      19                Points:          40
 PW_GRID| Volume element (a.u.^3)  0.1194         Volume (a.u.^3)      2866.5885
 PW_GRID| Grid span                                                    FULLSPACE
 PW_GRID|   Distribution                         Average         Max         Min
 PW_GRID|   G-Vectors                              750.0         920         600
 PW_GRID|   G-Rays                                  18.8          23          15
 PW_GRID|   Real Space Points                      750.0        1200         600

 POISSON| Solver                                                        PERIODIC
 POISSON| Periodicity                                                        XYZ

 RS_GRID| Information for grid number                                          1
 RS_GRID|   Bounds   1            -96      95                Points:         192
 RS_GRID|   Bounds   2            -36      35                Points:          72
 RS_GRID|   Bounds   3            -96      95                Points:         192
 RS_GRID| Real space distribution over                                  4 groups
 RS_GRID| Real space distribution along direction                              1
 RS_GRID| Border size                                                         45
 RS_GRID| Real space distribution over                                  8 groups
 RS_GRID| Real space distribution along direction                              3
 RS_GRID| Border size                                                         45
 RS_GRID|   Distribution                         Average         Max         Min
 RS_GRID|   Planes                                 138.0         138         138
 RS_GRID|   Distribution                         Average         Max         Min
 RS_GRID|   Planes                                 114.0         114         114

 RS_GRID| Information for grid number                                          2
 RS_GRID|   Bounds   1            -60      59                Points:         120
 RS_GRID|   Bounds   2            -20      19                Points:          40
 RS_GRID|   Bounds   3            -60      59                Points:         120
 RS_GRID| Real space fully replicated
 RS_GRID| Group size                                                           1

 RS_GRID| Information for grid number                                          3
 RS_GRID|   Bounds   1            -32      31                Points:          64
 RS_GRID|   Bounds   2            -12      11                Points:          24
 RS_GRID|   Bounds   3            -32      31                Points:          64
 RS_GRID| Real space fully replicated
 RS_GRID| Group size                                                           1

 RS_GRID| Information for grid number                                          4
 RS_GRID|   Bounds   1            -20      19                Points:          40
 RS_GRID|   Bounds   2             -7       7                Points:          15
 RS_GRID|   Bounds   3            -20      19                Points:          40
 RS_GRID| Real space fully replicated
 RS_GRID| Group size                                                           1

 Number of electrons:                                                        120
 Number of occupied orbitals:                                                 60
 Number of molecular orbitals:                                                60

 Number of orbital functions:                                                392
 Number of independent orbital functions:                                    392

 Extrapolation method: initial_guess

 *** WARNING in qs_initial_guess.F:303 :: User requested to restart the    ***
 *** wavefunction from the file named: testsuite_ad-RESTART.wfn. This file ***
 *** does not exist. Please check the existence of the file or change      ***
 *** properly the value of the keyword WFN_RESTART_FILE_NAME. Calculation  ***
 *** continues using ATOMIC GUESS.                                         ***


 Atomic guess: The first density matrix is obtained in terms of atomic orbitals
               and electronic configurations assigned to each atomic kind

 Guess for atomic kind: N

 Electronic structure
    Total number of core electrons                                          2.00
    Total number of valence electrons                                       5.00
    Total number of electrons                                               7.00
    Multiplicity                                                   not specified
    S   [  2.00] 2.00
    P      3.00


 *******************************************************************************
                  Iteration          Convergence                     Energy [au]
 *******************************************************************************
                          1        0.314603                      -9.513311037226
                          2        0.240982                      -9.524715106536
                          3        0.171660E-02                  -9.545365478140
                          4        0.189497E-03                  -9.545366407342
                          5        0.115171E-03                  -9.545366414563
                          6        0.842367E-04                  -9.545366416530
                          7        0.416372E-07                  -9.545366418792

 Energy components [Hartree]           Total Energy ::           -9.545366418792
                                        Band Energy ::           -2.053285301135
                                     Kinetic Energy ::            6.740378038236
                                   Potential Energy ::          -16.285744457028
                                      Virial (-V/T) ::            2.416147041701
                                        Core Energy ::          -15.542519058333
                                          XC Energy ::           -2.163416690174
                                     Coulomb Energy ::            8.160569329715
                       Total Pseudopotential Energy ::          -22.320027271038
                       Local Pseudopotential Energy ::          -23.240219346165
                    Nonlocal Pseudopotential Energy ::            0.920192075127
                                        Confinement ::            0.371301744695

 Orbital energies  State     L     Occupation   Energy[a.u.]          Energy[eV]

                       1     0          2.000      -0.663125          -18.044549

                       1     1          3.000      -0.242345           -6.594545


 Total Electron Density at R=0:                                         0.000019

 Guess for atomic kind: C

 Electronic structure
    Total number of core electrons                                          2.00
    Total number of valence electrons                                       4.00
    Total number of electrons                                               6.00
    Multiplicity                                                   not specified
    S   [  2.00] 2.00
    P      2.00


 *******************************************************************************
                  Iteration          Convergence                     Energy [au]
 *******************************************************************************
                          1        0.261814E-01                  -5.246264729087
                          2        0.905236E-02                  -5.246529568708
                          3        0.681743E-04                  -5.246565167452
                          4        0.792828E-08                  -5.246565169473

 Energy components [Hartree]           Total Energy ::           -5.246565169473
                                        Band Energy ::           -1.058732595430
                                     Kinetic Energy ::            3.518928170589
                                   Potential Energy ::           -8.765493340062
                                      Virial (-V/T) ::            2.490955460053
                                        Core Energy ::           -8.429377169956
                                          XC Energy ::           -1.450183342358
                                     Coulomb Energy ::            4.632995342842
                       Total Pseudopotential Energy ::          -11.978048809389
                       Local Pseudopotential Energy ::          -12.816738187351
                    Nonlocal Pseudopotential Energy ::            0.838689377962
                                        Confinement ::            0.297434688432

 Orbital energies  State     L     Occupation   Energy[a.u.]          Energy[eV]

                       1     0          2.000      -0.410911          -11.181458

                       1     1          2.000      -0.118455           -3.223332


 Total Electron Density at R=0:                                         0.001337

 Guess for atomic kind: H

 Electronic structure
    Total number of core electrons                                          0.00
    Total number of valence electrons                                       1.00
    Total number of electrons                                               1.00
    Multiplicity                                                   not specified
    S      1.00


 *******************************************************************************
                  Iteration          Convergence                     Energy [au]
 *******************************************************************************
                          1        0.250972E-02                  -0.375256815885
                          2        0.570752E-04                  -0.375258666164
                          3        0.832405E-09                  -0.375258667122

 Energy components [Hartree]           Total Energy ::           -0.375258667122
                                        Band Energy ::           -0.076317618391
                                     Kinetic Energy ::            0.771356566341
                                   Potential Energy ::           -1.146615233463
                                      Virial (-V/T) ::            1.486491829455
                                        Core Energy ::           -0.456090715790
                                          XC Energy ::           -0.314218627334
                                     Coulomb Energy ::            0.395050676003
                       Total Pseudopotential Energy ::           -1.238482237174
                       Local Pseudopotential Energy ::           -1.238482237174
                    Nonlocal Pseudopotential Energy ::            0.000000000000
                                        Confinement ::            0.110349550431

 Orbital energies  State     L     Occupation   Energy[a.u.]          Energy[eV]

                       1     0          1.000      -0.076318           -2.076708


 Total Electron Density at R=0:                                         0.425022
 Re-scaling the density matrix to get the right number of electrons
                  # Electrons              Trace(P)               Scaling factor
                          120               119.604                        1.003


 SCF WAVEFUNCTION OPTIMIZATION

  ----------------------------------- OT ---------------------------------------
  Minimizer      : DIIS                : direct inversion
                                         in the iterative subspace
                                         using   7 DIIS vectors
                                         safer DIIS on
  Preconditioner : FULL_ALL            : diagonalization, state selective
  Precond_solver : DEFAULT
  stepsize       :    0.15000000                  energy_gap     :    0.08000000
  eps_taylor     :   0.10000E-15                  max_taylor     :             4
  ----------------------------------- OT ---------------------------------------

  Step     Update method      Time    Convergence         Total energy    Change
  ------------------------------------------------------------------------------
     1 OT DIIS     0.15E+00    0.9     0.07896802      -168.4437698053 -1.68E+02
     2 OT DIIS     0.15E+00    1.0     0.08379579      -173.9878983315 -5.54E+00
     3 OT DIIS     0.15E+00    1.0     0.05209554      -177.2513265849 -3.26E+00
     4 OT DIIS     0.15E+00    1.0     0.04132663      -178.5518567244 -1.30E+00
     5 OT DIIS     0.15E+00    1.1     0.01588727      -179.3548800295 -8.03E-01
     6 OT DIIS     0.15E+00    1.0     0.01264180      -179.5896430350 -2.35E-01
     7 OT DIIS     0.15E+00    1.0     0.00933548      -179.7255203241 -1.36E-01
     8 OT DIIS     0.15E+00    1.0     0.00647050      -179.8218180292 -9.63E-02
     9 OT DIIS     0.15E+00    1.0     0.00468587      -179.8919646652 -7.01E-02
    10 OT DIIS     0.15E+00    1.0     0.00364405      -179.9323288546 -4.04E-02

  Leaving inner SCF loop after reaching    10 steps.


  Electronic density on regular grids:       -120.0000000000        0.0000000000
  Core density on regular grids:              120.0000000000        0.0000000000
  Total charge density on r-space grids:        0.0000000000
  Total charge density g-space grids:           0.0000000000

  Overlap energy of the core charge distribution:               0.00000834299173
  Self energy of the core charge distribution:               -434.73266088811687
  Core Hamiltonian energy:                                    133.82980127585239
  Hartree energy:                                             175.03046877797979
  Exchange-correlation energy:                                -53.98303018658266
  Dispersion energy:                                           -0.07691617670781

  Total energy:                                              -179.93232885458340

  outer SCF iter =    1 RMS gradient =   0.36E-02 energy =       -179.9323288546

  ----------------------------------- OT ---------------------------------------
  Minimizer      : DIIS                : direct inversion
                                         in the iterative subspace
                                         using   7 DIIS vectors
                                         safer DIIS on
  Preconditioner : FULL_ALL            : diagonalization, state selective
  Precond_solver : DEFAULT
  stepsize       :    0.15000000                  energy_gap     :    0.08000000
  eps_taylor     :   0.10000E-15                  max_taylor     :             4
  ----------------------------------- OT ---------------------------------------

  Step     Update method      Time    Convergence         Total energy    Change
  ------------------------------------------------------------------------------
     1 OT DIIS     0.15E+00    2.1     0.00417099      -179.9544026725 -2.21E-02
     2 OT DIIS     0.15E+00    1.0     0.00277930      -179.9890999658 -3.47E-02
     3 OT DIIS     0.15E+00    1.0     0.00255558      -179.9926668142 -3.57E-03
     4 OT DIIS     0.15E+00    1.0     0.00036701      -179.9976164620 -4.95E-03
     5 OT DIIS     0.15E+00    1.0     0.00011008      -179.9977455690 -1.29E-04
     6 OT DIIS     0.15E+00    1.0     0.00006316      -179.9977637776 -1.82E-05
     7 OT DIIS     0.15E+00    1.0     0.00005478      -179.9977666002 -2.82E-06
     8 OT DIIS     0.15E+00    1.0     0.00001023      -179.9977688906 -2.29E-06
     9 OT DIIS     0.15E+00    1.0     0.00000452      -179.9977689702 -7.96E-08
    10 OT DIIS     0.15E+00    1.0     0.00000169      -179.9977689857 -1.55E-08

  Leaving inner SCF loop after reaching    10 steps.


  Electronic density on regular grids:       -120.0000000000       -0.0000000000
  Core density on regular grids:              120.0000000000        0.0000000000
  Total charge density on r-space grids:       -0.0000000000
  Total charge density g-space grids:          -0.0000000000

  Overlap energy of the core charge distribution:               0.00000834299173
  Self energy of the core charge distribution:               -434.73266088811687
  Core Hamiltonian energy:                                    133.69829960121677
  Hartree energy:                                             175.09670487632479
  Exchange-correlation energy:                                -53.98320474140731
  Dispersion energy:                                           -0.07691617670781

  Total energy:                                              -179.99776898569868

  outer SCF iter =    2 RMS gradient =   0.17E-05 energy =       -179.9977689857

  ----------------------------------- OT ---------------------------------------
  Minimizer      : DIIS                : direct inversion
                                         in the iterative subspace
                                         using   7 DIIS vectors
                                         safer DIIS on
  Preconditioner : FULL_ALL            : diagonalization, state selective
  Precond_solver : DEFAULT
  stepsize       :    0.15000000                  energy_gap     :    0.08000000
  eps_taylor     :   0.10000E-15                  max_taylor     :             4
  ----------------------------------- OT ---------------------------------------

  Step     Update method      Time    Convergence         Total energy    Change
  ------------------------------------------------------------------------------
     1 OT DIIS     0.15E+00    2.1     0.00000068      -179.9977689879 -2.23E-09
     2 OT DIIS     0.15E+00    1.0     0.00000091      -179.9977689878  9.77E-11
     3 OT DIIS     0.15E+00    1.0     0.00000013      -179.9977689884 -5.80E-10
     4 OT DIIS     0.15E+00    1.0     0.00000009      -179.9977689884 -1.82E-11
     5 OT DIIS     0.15E+00    1.0     0.00000003      -179.9977689884 -8.67E-12
     6 OT DIIS     0.15E+00    1.0     7.7051E-09      -179.9977689884 -6.25E-13
     7 OT DIIS     0.15E+00    1.0     2.1179E-09      -179.9977689884 -5.68E-14
     8 OT DIIS     0.15E+00    1.0     5.9602E-10      -179.9977689884  0.00E+00

  *** SCF run converged in     8 steps ***


  Electronic density on regular grids:       -120.0000000000       -0.0000000000
  Core density on regular grids:              120.0000000000        0.0000000000
  Total charge density on r-space grids:       -0.0000000000
  Total charge density g-space grids:          -0.0000000000

  Overlap energy of the core charge distribution:               0.00000834299173
  Self energy of the core charge distribution:               -434.73266088811687
  Core Hamiltonian energy:                                    133.69835669227209
  Hartree energy:                                             175.09665879917094
  Exchange-correlation energy:                                -53.98321575805249
  Dispersion energy:                                           -0.07691617670781

  Total energy:                                              -179.99776898844237

  outer SCF iter =    3 RMS gradient =   0.60E-09 energy =       -179.9977689884
  outer SCF loop converged in   3 iterations or   28 steps


 !-----------------------------------------------------------------------------!
                     Mulliken Population Analysis

 #  Atom  Element  Kind  Atomic population                           Net charge
       1     N        1          5.200160                             -0.200160
       2     C        2          3.988285                              0.011715
       3     H        3          0.922750                              0.077250
       4     C        2          3.988790                              0.011210
       5     H        3          0.924713                              0.075287
       6     N        1          5.204174                             -0.204174
       7     C        2          3.979238                              0.020762
       8     H        3          0.923509                              0.076491
       9     C        2          3.984970                              0.015030
      10     H        3          0.922237                              0.077763
      11     N        1          5.205866                             -0.205866
      12     C        2          3.981022                              0.018978
      13     H        3          0.922358                              0.077642
      14     C        2          3.980472                              0.019528
      15     H        3          0.923126                              0.076874
      16     N        1          5.198470                             -0.198470
      17     C        2          3.963341                              0.036659
      18     H        3          0.923631                              0.076369
      19     C        2          3.968352                              0.031648
      20     H        3          0.922965                              0.077035
      21     N        1          5.199116                             -0.199116
      22     C        2          3.967900                              0.032100
      23     H        3          0.923187                              0.076813
      24     C        2          3.964580                              0.035420
      25     H        3          0.924461                              0.075539
      26     N        1          5.202059                             -0.202059
      27     C        2          3.964227                              0.035773
      28     H        3          0.924786                              0.075214
      29     C        2          3.966713                              0.033287
      30     H        3          0.923021                              0.076979
      31     N        1          5.204212                             -0.204212
      32     C        2          3.972742                              0.027258
      33     H        3          0.920887                              0.079113
      34     C        2          3.968203                              0.031797
      35     H        3          0.924813                              0.075187
      36     N        1          5.208343                             -0.208343
      37     C        2          3.979925                              0.020075
      38     H        3          0.925332                              0.074668
      39     C        2          3.984794                              0.015206
      40     H        3          0.922268                              0.077732
 # Total charge                            120.000000                 -0.000000

 !-----------------------------------------------------------------------------!

 !-----------------------------------------------------------------------------!
                           Hirshfeld Charges

  #Atom  Element  Kind  Ref Charge     Population                    Net charge
      1       N      1       5.000          5.438                        -0.438
      2       C      2       4.000          4.242                        -0.242
      3       H      3       1.000          0.547                         0.453
      4       C      2       4.000          4.238                        -0.238
      5       H      3       1.000          0.545                         0.455
      6       N      1       5.000          5.445                        -0.445
      7       C      2       4.000          4.230                        -0.230
      8       H      3       1.000          0.545                         0.455
      9       C      2       4.000          4.242                        -0.242
     10       H      3       1.000          0.548                         0.452
     11       N      1       5.000          5.436                        -0.436
     12       C      2       4.000          4.237                        -0.237
     13       H      3       1.000          0.547                         0.453
     14       C      2       4.000          4.233                        -0.233
     15       H      3       1.000          0.544                         0.456
     16       N      1       5.000          5.415                        -0.415
     17       C      2       4.000          4.232                        -0.232
     18       H      3       1.000          0.543                         0.457
     19       C      2       4.000          4.246                        -0.246
     20       H      3       1.000          0.549                         0.451
     21       N      1       5.000          5.415                        -0.415
     22       C      2       4.000          4.245                        -0.245
     23       H      3       1.000          0.546                         0.454
     24       C      2       4.000          4.236                        -0.236
     25       H      3       1.000          0.543                         0.457
     26       N      1       5.000          5.425                        -0.425
     27       C      2       4.000          4.234                        -0.234
     28       H      3       1.000          0.544                         0.456
     29       C      2       4.000          4.244                        -0.244
     30       H      3       1.000          0.549                         0.451
     31       N      1       5.000          5.423                        -0.423
     32       C      2       4.000          4.247                        -0.247
     33       H      3       1.000          0.547                         0.453
     34       C      2       4.000          4.236                        -0.236
     35       H      3       1.000          0.544                         0.456
     36       N      1       5.000          5.452                        -0.452
     37       C      2       4.000          4.231                        -0.231
     38       H      3       1.000          0.545                         0.455
     39       C      2       4.000          4.242                        -0.242
     40       H      3       1.000          0.548                         0.452

  Total Charge                                                           -0.000
 !-----------------------------------------------------------------------------!

 *******************************************************************************
 **                                                                           **
 **         ######## #######   #######   ######## #######  ########           **
 **            ##    ##     ## ##     ## ##       ##   ##     ##              **
 **            ##    ##     ## ##     ## ######   #######     ##              **
 **            ##    ##     ## ##     ## ##       ##          ##              **
 **            ##    #######   #######   ##       ##          ##              **
 **                                                                           **
 *******************************************************************************
 KERNEL|                                                                    sTDA
 KERNEL| Coulomb term uses Ewald summation
 KERNEL| Exact exchange term                                                  NO
 KERNEL| Transition density filter                                     0.100E-09
 KERNEL| Spin symmetry of excitations                                    Singlet
 TDDFPT| Number of states calculated                                          80
 TDDFPT| Number of Davidson iterations                                       100
 TDDFPT| Davidson iteration convergence                                0.367E-06
 TDDFPT| Max. number of Krylov space vectors                                  20
 TDDFPT| Molecular Orbitals:        Spin       AOs       Occ      Virt     Total
 TDDFPT|                               1       392        60       332       392
 sTDA| Exchange term is not used!
 sTDA| HFX Fraction                                                       0.0000
 sTDA| Mataga-Nishimoto exponent (C)                                      1.4200
 sTDA| Mataga-Nishimoto exponent (X)                                      0.2000
 sTDA| TD matrix filter                                           0.10000000E-09
 
 -------------------------------------------------------------------------------
 -                             Create Matrix SQRT(S)                           -
 -------------------------------------------------------------------------------

     Lanczos converged:  F threshold:   0.100E-03
     Est. extremal eigenvalues:    0.883E+01   0.412E-02
     Est. condition number :    0.215E+04

 Order=           3
     NS sqrt iter    1 1.00000000   0.208E+01       0.015      524.800
     NS sqrt iter    2 1.00000000   0.136E+01       0.015      998.394
     NS sqrt iter    3 1.00000000   0.738E+00       0.015     1025.176
     NS sqrt iter    4 1.00000000   0.355E+00       0.015     1026.836
     NS sqrt iter    5 1.00000000   0.150E+00       0.014     1050.801
     NS sqrt iter    6 1.00000000   0.769E-01       0.015     1028.992
     NS sqrt iter    7 1.00000000   0.217E-01       0.015     1029.792
     NS sqrt iter    8 1.00000000   0.632E-03       0.014      976.581
     NS sqrt iter    9 1.00000000   0.181E-07       0.012      408.354
     Symmetrizing Results
     Final NS sqrt iter    9 1.00000000   0.183E-07


 EWALD| Summation is done by:                                               SPME
 EWALD| Alpha parameter [       ANGSTROM^-1]                              1.8897
 EWALD| Real Space Cutoff [          ANGSTROM]                            1.7854
 EWALD| G-space max. Miller index                         75        25        75
 EWALD| Spline interpolation order                                             6

 PW_GRID| Information for grid number                                          5
 PW_GRID| Grid distributed over                                    32 processors
 PW_GRID| Real space group dimensions                                    32    1
 PW_GRID| the grid is blocked:                                                NO
 PW_GRID| Cutoff [a.u.]                                                     54.2
 PW_GRID| spherical cutoff:                                                  YES
 PW_GRID| Grid points within cutoff                                        27299
 PW_GRID|   Bounds   1            -37      37                Points:          75
 PW_GRID|   Bounds   2            -12      12                Points:          25
 PW_GRID|   Bounds   3            -37      37                Points:          75
 PW_GRID| Volume element (a.u.^3)  0.2038E-01     Volume (a.u.^3)      2866.5885
 PW_GRID| Grid span                                                    HALFSPACE
 PW_GRID|   Distribution                         Average         Max         Min
 PW_GRID|   G-Vectors                              853.1         942         732
 PW_GRID|   G-Rays                                  40.5          42          40
 PW_GRID|   Real Space Points                     4394.5        5625        3750

 RS_GRID| Information for grid number                                          5
 RS_GRID|   Bounds   1            -37      37                Points:          75
 RS_GRID|   Bounds   2            -12      12                Points:          25
 RS_GRID|   Bounds   3            -37      37                Points:          75
 RS_GRID| Real space distribution over                                  4 groups
 RS_GRID| Real space distribution along direction                              1
 RS_GRID| Border size                                                          3
 RS_GRID| Real space distribution over                                  8 groups
 RS_GRID| Real space distribution along direction                              3
 RS_GRID| Border size                                                          3
 RS_GRID|   Distribution                         Average         Max         Min
 RS_GRID|   Planes                                  24.8          25          24
 RS_GRID|   Distribution                         Average         Max         Min
 RS_GRID|   Planes                                  15.4          16          15
 
 -------------------------------------------------------------------------------
 -                            TDDFPT Initial Guess                             -
 -------------------------------------------------------------------------------
          State         Occupied      ->      Virtual          Excitation
          number         orbital              orbital          energy (eV)
 -------------------------------------------------------------------------------
             1               60                   61              2.40439
             2               59                   61              2.56370
             3               60                   62              2.58563
             4               60                   63              2.62352
             5               60                   64              2.66345
             6               59                   62              2.74493
             7               59                   63              2.78283
             8               59                   64              2.82276
             9               58                   61              2.82984
            10               57                   61              2.93080
            11               58                   62              3.01108
            12               58                   63              3.04897
            13               58                   64              3.08890
            14               57                   62              3.11203
            15               57                   63              3.14993
            16               57                   64              3.18986
            17               60                   65              3.64727
            18               60                   66              3.75813
            19               60                   67              3.80198
            20               59                   65              3.80658
            21               59                   66              3.91744
            22               59                   67              3.96129
            23               60                   68              3.99295
            24               58                   65              4.07272
            25               59                   68              4.15226
            26               57                   65              4.17368
            27               58                   66              4.18358
            28               58                   67              4.22743
            29               56                   61              4.27784
            30               57                   66              4.28454
            31               55                   61              4.31082
            32               57                   67              4.32839
            33               54                   61              4.37065
            34               53                   61              4.39556
            35               58                   68              4.41840
            36               56                   62              4.45907
[...]
 flops     5 x     5 x    13            125204950       0.0%    100.0%      0.0%     
 flops    13 x    13 x     5            488056790       0.0%    100.0%      0.0%     
 flops     5 x    13 x    13            498037930       0.0%    100.0%      0.0%     
 flops    13 x     5 x    13            498837300       0.0%    100.0%      0.0%     
 flops     5 x    28 x     5            745472000       0.0%    100.0%      0.0%     
 flops     5 x    32 x     5            860160000       0.0%    100.0%      0.0%     
 flops    13 x    13 x    13           1974391172       0.0%    100.0%      0.0%     
 flops    98 x    28 x    41           2417485952       0.0%    100.0%      0.0%     
 flops    98 x    32 x    41           2762841088       0.0%    100.0%      0.0%     
 flops     5 x    28 x    13           2907340800       0.0%    100.0%      0.0%     
 flops    13 x    28 x     5           2907340800       0.0%    100.0%      0.0%     
 flops     5 x    32 x    13           3354624000       0.0%    100.0%      0.0%     
 flops    13 x    32 x     5           3354624000       0.0%    100.0%      0.0%     
 flops    98 x    28 x    57           3360895104       0.0%    100.0%      0.0%     
 flops    98 x    32 x    57           3841022976       0.0%    100.0%      0.0%     
 flops    98 x    28 x    49           5778381056       0.0%    100.0%      0.0%     
 flops    98 x    32 x    49           6603864064       0.0%    100.0%      0.0%     
 flops    13 x    28 x    13          11338629120       0.0%    100.0%      0.0%     
 flops    13 x    32 x    13          13083033600       0.0%    100.0%      0.0%     
 flops inhomo. stacks                           0       0.0%      0.0%      0.0%
 flops total                        68.263502E+09       0.0%    100.0%      0.0%
 flops max/rank                      8.721873E+09       0.0%    100.0%      0.0%
 matmuls inhomo. stacks                         0       0.0%      0.0%      0.0%
 matmuls total                            8863603       0.0%    100.0%      0.0%
 number of processed stacks                702237       0.0%    100.0%      0.0%
 average stack size                                     0.0      12.6       0.0
 marketing flops                    69.129683E+09
 -------------------------------------------------------------------------------
 # multiplications                           3928
 max memory usage/rank             371.884032E+06
 # max total images/rank                        2
 # max 3D layers                                1
 # MPI messages exchanged                 1634048
 MPI messages size (bytes):
  total size                        32.348881E+09
  min size                           0.000000E+00
  max size                          44.688000E+03
  average size                      19.796775E+03
 MPI breakdown and total messages size (bytes):
             size <=      128              648930                        0
       128 < size <=     8192                9348                 65840320
      8192 < size <=    32768              394658               8753123008
     32768 < size <=   131072              581112              23538910080
    131072 < size <=  4194304                   0                        0
   4194304 < size <= 16777216                   0                        0
  16777216 < size                               0                        0
 -------------------------------------------------------------------------------

 *** WARNING in dbcsr_mm.F:301 :: Using a non-square number of MPI ranks ***
 *** might lead to poor performance. Used ranks: 32 Suggested: 36 64     ***

 -------------------------------------------------------------------------------
 -                                                                             -
 -                      DBCSR MESSAGE PASSING PERFORMANCE                      -
 -                                                                             -
 -------------------------------------------------------------------------------
 ROUTINE             CALLS      AVE VOLUME [Bytes]
 MP_Bcast               63                     12.
 MP_Allreduce        15947                      8.
 MP_Alltoall         81563                  15921.
 MP_ISend           125044                  10760.
 MP_IRecv           124928                  10625.
 -------------------------------------------------------------------------------

 -------------------------------------------------------------------------------
 -                                                                             -
 -                                DBM STATISTICS                               -
 -                                                                             -
 -------------------------------------------------------------------------------
    M  x    N  x    K                                          COUNT     PERCENT
 -------------------------------------------------------------------------------

 -------------------------------------------------------------------------------
 -                                                                             -
 -                                GRID STATISTICS                              -
 -                                                                             -
 -------------------------------------------------------------------------------
 LP    KERNEL             BACKEND                              COUNT     PERCENT
 3     collocate general  CPU                                1608195      24.56%
 3     integrate general  CPU                                1552740      23.72%
 4     collocate general  CPU                                1050902      16.05%
 4     integrate general  CPU                                1014664      15.50%
 2     collocate general  CPU                                 670132      10.23%
 2     integrate general  CPU                                 647024       9.88%
 0     collocate general  CPU                                   2560       0.04%
 0     integrate general  CPU                                   1280       0.02%
 -------------------------------------------------------------------------------

 MEMORY| Estimated peak process memory [MiB]                                 355

 -------------------------------------------------------------------------------
 ----                             MULTIGRID INFO                            ----
 -------------------------------------------------------------------------------
 count for grid        1:         228215          cutoff [a.u.]          400.00
 count for grid        2:         174513          cutoff [a.u.]          133.33
 count for grid        3:         136470          cutoff [a.u.]           44.44
 count for grid        4:         124736          cutoff [a.u.]           14.81
 total gridlevel count  :         663934

 -------------------------------------------------------------------------------
 -                                                                             -
 -                         MESSAGE PASSING PERFORMANCE                         -
 -                                                                             -
 -------------------------------------------------------------------------------

 ROUTINE             CALLS      AVE VOLUME [Bytes]
 MP_Group                5
 MP_Bcast             1443                 390030.
 MP_Allreduce        81658                     68.
 MP_Sync               204
 MP_Alltoall          1831                1077765.
 MP_SendRecv          2697                  62592.
 MP_ISendRecv         2604                  62592.
 MP_Wait             25364
 MP_comm_split         199
 MP_ISend            16200                  39322.
 MP_IRecv            18680                  34102.
 -------------------------------------------------------------------------------


 -------------------------------------------------------------------------------
 -                                                                             -
 -                           R E F E R E N C E S                               -
 -                                                                             -
 -------------------------------------------------------------------------------
 
 CP2K version 2024.3 (Development Version), the CP2K developers group (2024).
 CP2K is freely available from https://www.cp2k.org/ .
 
 T. D. Kuehne, M. Iannuzzi, M. Del Ben, V. V. Rybkin, P. Seewald, F. Stein, T. 
 Laino, R. Z. Khaliullin, O. Schuett, F. Schiffmann, D. Golze, J. Wilhelm, S. 
 Chulkov, M. H. Bani-Hashemian, V. Weber, U. Borstnik, M. Taillefumier, A. S. 
 Jakobovits, A. Lazzaro, H. Pabst, T. Mueller, R. Schade, M. Guidon, S. 
 Andermatt, N. Holmberg, G. K. Schenter, A. Hehn, A. Bussy, F. Belleflamme, G. 
 Tabacchi, A. Gloess, M. Lass, I. Bethune, C. J. Mundy, C. Plessl, M. Watkins, 
 J. VandeVondele, M. Krack, J. Hutter.
 J. Chem. Phys. 152, 194103 (2020).
 CP2K: An electronic structure and molecular dynamics software package - 
 Quickstep: Efficient and accurate electronic structure calculations.
 https://doi.org/10.1063/5.0007045

 L. Goerigk, A. Hansen, C. Bauer, S. Ehrlich, A. Najibi, S. Grimme.
 Phys. Chem. Chem. Phys. 19, 32184-32215 (2017).
 A look at the density functional theory zoo with the advanced GMTKN55 database 
 for general main group thermochemistry, kinetics and noncovalent interactions.
 https://doi.org/10.1039/C7CP04913G

 S. Grimme, C. Bannwarth.
 J. Chem. Phys. 145, 054103 (2016).
 Ultra-fast computation of electronic spectra for large systems by tight-binding 
 based simplified Tamm-Dancoff approximation (sTDA-xTB).
 https://doi.org/10.1063/1.4959605

 O. Schuett, P. Messmer, J. Hutter, J. VandeVondele.
 Electronic Structure Calculations on Graphics Processing Units, 173-190 (2016).
 GPU-Accelerated Sparse Matrix-Matrix Multiplication for Linear Scaling Density 
 Functional Theory.
 https://doi.org/10.1002/9781118670712.ch8

 A. Heinecke, G. Henry, M. Hutchinson, H. Pabst.
 Proceedings of Intl. Supercomputing Conference, 981-991 (2016).
 LIBXSMM: Accelerating Small Matrix Multiplications by Runtime Code Generation.
 https://doi.org/10.1109/SC.2016.83

 J. Hutter, M. Iannuzzi, F. Schiffmann, J. VandeVondele.
 WIREs Comput Mol Sci. 4, 15-25 (2014).
 CP2K: atomistic simulations of condensed matter systems.
 https://doi.org/10.1002/wcms.1159

 U. Borstnik, J. VandeVondele, V. Weber, J. Hutter.
 Parallel Comput. 40, 47-58 (2014).
 Sparse matrix multiplication: The distributed block-compressed sparse row 
 library.
 https://doi.org/10.1016/j.parco.2014.03.012

 A. Marek, V. Blum, R. Johanni, V. Havu, B. Lang, T. Auckenthaler, A. Heinecke, 
 H. Bungartz, H. Lederer.
 J. Phys. Condens. Matter 26, 213201 (2014).
 The ELPA library: scalable parallel eigenvalue solutions for electronic 
 structure theory and computational science.
 https://doi.org/10.1088/0953-8984/26/21/213201

 S. Grimme.
 J. Chem. Phys. 138, 244104 (2013).
 A simplified Tamm-Dancoff density functional approach for the electronic 
 excitation spectra of very large molecules.
 https://doi.org/10.1063/1.4811331

 S. Grimme, S. Ehrlich, L. Goerigk.
 J. Comput. Chem. 32, 1456 (2011).
 Effect of the damping function in dispersion corrected density functional 
 theory.
 https://doi.org/10.1002/jcc.21759

 S. Grimme, J. Antony, S. Ehrlich, H. Krieg.
 J. Chem. Phys. 132, 154104 (2010).
 A consistent and accurate ab initio parametrization of density functional 
 dispersion correction (DFT-D) for the 94 elements H-Pu.
 https://doi.org/10.1063/1.3382344

 J. VandeVondele, J. Hutter.
 J. Chem. Phys. 127, 114105 (2007).
 Gaussian basis sets for accurate calculations on molecular systems in gas and 
 condensed phases.
 https://doi.org/10.1063/1.2770708

 J. VandeVondele, M. Krack, F. Mohamed, M. Parrinello, T. Chassaing, J. Hutter.
 Comput. Phys. Commun. 167, 103-128 (2005).
 QUICKSTEP: Fast and accurate density functional calculations using a mixed 
 Gaussian and plane waves approach.
 https://doi.org/10.1016/j.cpc.2004.12.014

 M. Krack.
 Theor. Chem. Acc. 114, 145-152 (2005).
 Pseudopotentials for H to Kr optimized for gradient-corrected 
 exchange-correlation functionals.
 https://doi.org/10.1007/s00214-005-0655-y

 M. Iannuzzi, T. Chassaing, T. Wallman, J. Hutter.
 CHIMIA 59, 499-503 (2005).
 Ground and excited state density functional calculations with the Gaussian and 
 augmented-plane-wave method.
 https://doi.org/10.2533/000942905777676164

 M. Frigo, S. G. Johnson.
 Proc. IEEE 93, 216-231 (2005).
 The design and implementation of FFTW3.
 https://doi.org/10.1109/JPROC.2004.840301

 J. VandeVondele, J. Hutter.
 J. Chem. Phys. 118, 4365-4369 (2003).
 An efficient orbital transformation method for electronic structure 
 calculations.
 https://doi.org/10.1063/1.1543154

 R. L. Martin.
 J. Chem. Phys. 118, 4775-4777 (2003).
 Natural transition orbitals.
 https://doi.org/10.1063/1.1558471

 C. Hartwigsen, S. Goedecker, J. Hutter.
 Phys. Rev. B 58, 3641-3662 (1998).
 Relativistic separable dual-space Gaussian pseudopotentials from H to Rn.
 https://doi.org/10.1103/PhysRevB.58.3641

 G. Lippert, J. Hutter, M. Parrinello.
 Mol. Phys. 92, 477-487 (1997).
 A hybrid Gaussian and plane wave density functional scheme.
 https://doi.org/10.1080/002689797170220

 S. Goedecker, M. Teter, J. Hutter.
 Phys. Rev. B 54, 1703-1710 (1996).
 Separable dual-space Gaussian pseudopotentials.
 https://doi.org/10.1103/PhysRevB.54.1703

 J. P. Perdew, K. Burke, M. Ernzerhof.
 Phys. Rev. Lett. 77, 3865-3868 (1996).
 Generalized gradient approximation made simple.
 https://doi.org/10.1103/PhysRevLett.77.3865


 -------------------------------------------------------------------------------
 -                                                                             -
 -                                T I M I N G                                  -
 -                                                                             -
 -------------------------------------------------------------------------------
 SUBROUTINE                       CALLS  ASD         SELF TIME        TOTAL TIME
                                MAXIMUM       AVERAGE  MAXIMUM  AVERAGE  MAXIMUM
 CP2K                                 1  1.0    0.185    0.210  560.548  560.585
 qs_energies                          1  2.0    0.004    0.008  558.454  558.491
 scf_env_do_scf                       1  3.0    0.001    0.001  361.465  361.489
 scf_env_do_scf_inner_loop           28  4.0    0.003    0.009  339.918  339.940
 qs_energies_properties               1  3.0    0.003    0.003  187.633  187.645
 tddfpt                               1  4.0    0.062    0.079  187.630  187.642
 tddfpt_energies                      1  5.0    0.001    0.001  185.696  185.709
 qs_ks_update_qs_env                 31  5.0    0.001    0.001  183.380  183.401
 rebuild_ks_matrix                   28  6.0    0.000    0.000  183.358  183.380
 qs_ks_build_kohn_sham_matrix        28  7.0    0.018    0.019  183.357  183.380
 qs_rho_update_rho_low               29  5.0    0.001    0.001  177.777  177.808
 calculate_rho_elec                  29  6.0    0.076    0.076  177.776  177.807
 grid_collocate_task_list            29  7.0  167.294  171.891  167.294  171.891
 sum_up_and_integrate                28  8.0    0.002    0.002  163.198  163.211
 integrate_v_rspace                  28  9.0    0.004    0.004  163.130  163.142
 grid_integrate_task_list            28 10.0  153.812  157.479  153.812  157.479
 tddfpt_davidson_solver               3  6.0    0.037    0.043  121.536  121.545
 cp_dbcsr_sm_fm_multiply           3298  9.1    0.278    0.289   63.965   81.378
 tddfpt_orthonormalize_psi1_psi       9  6.9    0.450    0.481   27.032   45.258
 dbcsr_complete_redistribute       8047 11.1    1.971    5.186   26.243   43.545
 tddfpt_compute_Aop_evects            8  7.0    0.029    0.036   42.161   42.172
 parallel_gemm_fm                  2415  7.8    0.012    0.015   29.260   37.930
 parallel_gemm_fm_cosma            2415  8.8   29.248   37.917   29.248   37.917
 dbcsr_multiply_generic            3928 10.9    0.751    0.771   34.694   36.120
 copy_fm_to_dbcsr                  4619 10.2    0.085    0.090   17.763   35.206
 mp_alltoall_i22                  11509 12.1   15.661   33.172   15.661   33.172
 mp_sum_iv                         2074  7.5   28.827   31.901   28.827   31.901
 cp_dbcsr_sm_fm_multiply_core      3298 10.1    0.029    0.030   30.060   31.497
 stda_kernel                          8  8.0    0.004    0.005   30.573   30.582
 stda_calculate_kernel              640  9.0    0.224    0.295   30.569   30.578
 tddfpt_print_nto_analysis            1  6.0    0.071    0.086   29.375   30.516
 tddfpt_write_newtonx_output          1  6.0    0.011    0.084   27.985   29.715
 cp_fm_write_formatted               82  7.0    1.804   26.771    1.983   26.772
 tddfpt_compute_residual_vects        5  7.0    0.014    0.079   24.487   24.956
 compute_phase_eigenvectors          80  7.0    0.005    0.044   23.580   24.340
 cp_fm_geeig                         80  7.0    0.025    0.026   22.618   23.602
 mp_sum_dv                        76416  9.1   14.243   23.122   14.243   23.122
 cp_fm_diag_elpa                    199  7.9    0.003    0.005   20.620   21.829
 multiply_cannon                   3928 11.9    1.655    1.690   19.435   21.779
 cp_fm_trace_a1b1t1_aa            73960  8.0    1.650    5.779   13.467   21.571
 init_scf_loop                        3  4.0    0.001    0.009   21.541   21.542
 tddfpt_orthogonalize_psi1_psi0       9  6.9    0.005    0.007   17.843   21.008
 tddfpt_compute_ritz_vects            8  7.0    0.563    0.629   11.810   20.499
 cp_fm_redistribute_end             199  8.9    2.698   19.188    2.827   19.253
 cp_fm_diag_elpa_base               199  9.0   15.607   17.712   16.302   18.487
 copy_dbcsr_to_fm                  3428 10.0    0.215    0.223   15.995   18.099
 multiply_cannon_loop              3928 12.9    0.877    0.927   15.714   17.852
 fft_wrap_pw1pw2                   1762 10.8    0.051    0.054   17.467   17.831
 qs_vxc_create                       28  8.0    0.002    0.002   17.523   17.536
 xc_vxc_pw_create                    28  9.0    0.188    0.191   17.521   17.534
 mp_waitall_1                    258076 15.0   12.203   15.403   12.203   15.403
 density_rs2pw                       29  7.0    0.005    0.006   10.330   15.152
 fft_wrap_pw1pw2_400                311 11.7    0.336    0.358   13.862   13.974
 cp_fm_scale_and_add             267000  8.0    2.023   13.752    2.023   13.752
 fft3d_ps                          1762 12.8    7.577    7.884   13.214   13.663
 multiply_cannon_metrocomm3       31424 13.9    0.419    0.427   10.174   13.437
 transfer_rs2pw                     758 10.5    0.033    0.034    8.661   13.237
 mp_waitany                       16200 12.9    7.624   12.468    7.624   12.468
 xc_rho_set_and_dset_create          28 10.0    0.183    0.188   11.910   12.169
 tddfpt_apply_energy_diff             8  8.0    0.021    0.054   11.560   11.561
 mp_alltoall_d11v                 34584 12.4    8.070   11.361    8.070   11.361
 -------------------------------------------------------------------------------

 The number of warnings for this run is : 2
 
 -------------------------------------------------------------------------------
  **** **** ******  **  PROGRAM ENDED AT                 2025-01-21 13:36:00.133
 ***** ** ***  *** **   PROGRAM RAN ON                                      n233
 **    ****   ******    PROGRAM RAN BY                                  suphc356
 ***** **    ** ** **   PROGRAM PROCESS ID                               2353373
  **** **  *******  **  PROGRAM STOPPED IN /work_beegfs/suphc356/NEWTONX/Pyrazin
                                           e_crystal_NEW/GPW_PBE_vdW_20/IC_TDDFT
                                           _STDA_again/JOB_AD
