 DBCSR| CPU Multiplication driver                                           XSMM (U)
 DBCSR| Multrec recursion limit                                              512 (U)
 DBCSR| Multiplication stack size                                           1000 (D)
 DBCSR| Maximum elements for images                                    UNLIMITED (U)
 DBCSR| Multiplicative factor virtual images                                   1 (U)
 DBCSR| Use multiplication densification                                       T (D)
 DBCSR| Multiplication size stacks                                             3 (U)
 DBCSR| Use memory pool for CPU allocation                                     F (U)
 DBCSR| Number of 3D layers                                               SINGLE (U)
 DBCSR| Use MPI memory allocation                                              F (U)
 DBCSR| Use RMA algorithm                                                      F (U)
 DBCSR| Use Communication thread                                               T (U)
 DBCSR| Communication thread load                                             87 (D)
 DBCSR| MPI: My process id                                                     0
 DBCSR| MPI: Number of processes                                              16
 DBCSR| OMP: Current number of threads                                         1
 DBCSR| OMP: Max number of threads                                             1
 DBCSR| Split modifier for TAS multiplication algorithm                  1.0E+00 (U)


  **** **** ******  **  PROGRAM STARTED AT               2025-01-06 23:34:13.377
 ***** ** ***  *** **   PROGRAM STARTED ON                           nesh-srp181
 **    ****   ******    PROGRAM STARTED BY                              suphc356
 ***** **    ** ** **   PROGRAM PROCESS ID                               3794498
  **** **  *******  **  PROGRAM STARTED IN /gxfs_work/cau/suphc356/NEWTONX_proje
                                           ct/Pyrazin_molecule/CP2K_GAPW_B3LYP_d
                                           ef2_TZVP/MOLDYN_BA_again/TRAJECTORIES
                                           /TRAJ115/TEMP

 CP2K| version string:                 CP2K version 2024.1 (Development Version)
 CP2K| source code revision number:                                  git:990486a
 CP2K| cp2kflags: omp libint fftw3 libxc libgrpp parallel mpi_f08 scalapack cosm
 CP2K|            a xsmm spglib mkl
 CP2K| is freely available from                            https://www.cp2k.org/
 CP2K| Program compiled at                          Mon Mar 11 08:48:45 CET 2024
 CP2K| Program compiled on                                           nesh-login2
 CP2K| Program compiled for                                                local
 CP2K| Data directory path                 /gxfs_work/cau/suphc356/cp2k_gcc/data
 CP2K| Input file name                                                  cp2k.inp

 GLOBAL| Force Environment number                                              1
 GLOBAL| Basis set file name                                     EMSL_BASIS_SETS
 GLOBAL| Potential file name                                      ALL_POTENTIALS
 GLOBAL| MM Potential file name                                     MM_POTENTIAL
 GLOBAL| Coordinate file name                                      __STD_INPUT__
 GLOBAL| Method name                                                        CP2K
 GLOBAL| Project name                                               testsuite_ad
 GLOBAL| Run type                                                   ENERGY_FORCE
 GLOBAL| FFT library                                                       FFTW3
 GLOBAL| Diagonalization library                                       ScaLAPACK
 GLOBAL| DGEMM library                                                      BLAS
 GLOBAL| Orthonormality check for eigenvectors                          DISABLED
 GLOBAL| Matrix multiplication library                                     COSMA
 GLOBAL| All-to-all communication in single precision                          F
 GLOBAL| FFTs using library dependent lengths                                  F
 GLOBAL| Grid backend                                                       AUTO
 GLOBAL| Global print level                                               MEDIUM
 GLOBAL| MPI I/O enabled                                                       T
 GLOBAL| Total number of message passing processes                            16
 GLOBAL| Number of threads for this process                                    1
 GLOBAL| This output is from process                                           0
 GLOBAL| Stack size for threads created by OpenMP (OMP_STACKSIZE)           256M
 GLOBAL| CPU model name                              Intel(R) Xeon(R) Gold 6426Y
 GLOBAL| CPUID                                                              1003
 GLOBAL| Compiled for CPUID                                                    0

 *** HINT in environment.F:920 :: The compiler target flags (generic) used ***
 *** to build this binary cannot exploit all extensions of this CPU model  ***
 *** (x86_avx512). Consider compiler target flags as part of FCFLAGS and   ***
 *** CFLAGS (ARCH file).                                                   ***


 MEMORY| system memory details [Kb]
 MEMORY|                        rank 0           min           max       average
 MEMORY| MemTotal            263786136     263786136     263786136     263786136
 MEMORY| MemFree             246928316     246928316     246928316     246928316
 MEMORY| Buffers                681712        681712        681712        681712
 MEMORY| Cached                 688904        688904        688904        688904
 MEMORY| Slab                  1311056       1311056       1311056       1311056
 MEMORY| SReclaimable           148440        148440        148440        148440
 MEMORY| MemLikelyFree       248447372     248447372     248447372     248447372


 *** Fundamental physical constants (SI units) ***

 *** Literature: B. J. Mohr and B. N. Taylor,
 ***             CODATA recommended values of the fundamental physical
 ***             constants: 2006, Web Version 5.1
 ***             http://physics.nist.gov/constants

 Speed of light in vacuum [m/s]                             2.99792458000000E+08
 Magnetic constant or permeability of vacuum [N/A**2]       1.25663706143592E-06
 Electric constant or permittivity of vacuum [F/m]          8.85418781762039E-12
 Planck constant (h) [J*s]                                  6.62606896000000E-34
 Planck constant (h-bar) [J*s]                              1.05457162825177E-34
 Elementary charge [C]                                      1.60217648700000E-19
 Electron mass [kg]                                         9.10938215000000E-31
 Electron g factor [ ]                                     -2.00231930436220E+00
 Proton mass [kg]                                           1.67262163700000E-27
 Fine-structure constant                                    7.29735253760000E-03
 Rydberg constant [1/m]                                     1.09737315685270E+07
 Avogadro constant [1/mol]                                  6.02214179000000E+23
 Boltzmann constant [J/K]                                   1.38065040000000E-23
 Atomic mass unit [kg]                                      1.66053878200000E-27
 Bohr radius [m]                                            5.29177208590000E-11

 *** Conversion factors ***

 [u] -> [a.u.]                                              1.82288848426455E+03
 [Angstrom] -> [Bohr] = [a.u.]                              1.88972613288564E+00
 [a.u.] = [Bohr] -> [Angstrom]                              5.29177208590000E-01
 [a.u.] -> [s]                                              2.41888432650478E-17
 [a.u.] -> [fs]                                             2.41888432650478E-02
 [a.u.] -> [J]                                              4.35974393937059E-18
 [a.u.] -> [N]                                              8.23872205491840E-08
 [a.u.] -> [K]                                              3.15774647902944E+05
 [a.u.] -> [kJ/mol]                                         2.62549961709828E+03
 [a.u.] -> [kcal/mol]                                       6.27509468713739E+02
 [a.u.] -> [Pa]                                             2.94210107994716E+13
 [a.u.] -> [bar]                                            2.94210107994716E+08
 [a.u.] -> [atm]                                            2.90362800883016E+08
 [a.u.] -> [eV]                                             2.72113838565563E+01
 [a.u.] -> [Hz]                                             6.57968392072181E+15
 [a.u.] -> [1/cm] (wave numbers)                            2.19474631370540E+05
 [a.u./Bohr**2] -> [1/cm]                                   5.14048714338585E+03
 

 CELL_TOP| Volume [angstrom^3]:                                      2744.000000
 CELL_TOP| Vector a [angstrom    14.000     0.000     0.000   |a| =    14.000000
 CELL_TOP| Vector b [angstrom     0.000    14.000     0.000   |b| =    14.000000
 CELL_TOP| Vector c [angstrom     0.000     0.000    14.000   |c| =    14.000000
 CELL_TOP| Angle (b,c), alpha [degree]:                                90.000000
 CELL_TOP| Angle (a,c), beta  [degree]:                                90.000000
 CELL_TOP| Angle (a,b), gamma [degree]:                                90.000000
 CELL_TOP| Numerically orthorhombic:                                         YES
 CELL_TOP| Periodicity                                                      NONE

 CELL| Volume [angstrom^3]:                                          2744.000000
 CELL| Vector a [angstrom]:      14.000     0.000     0.000   |a| =    14.000000
 CELL| Vector b [angstrom]:       0.000    14.000     0.000   |b| =    14.000000
 CELL| Vector c [angstrom]:       0.000     0.000    14.000   |c| =    14.000000
 CELL| Angle (b,c), alpha [degree]:                                    90.000000
 CELL| Angle (a,c), beta  [degree]:                                    90.000000
 CELL| Angle (a,b), gamma [degree]:                                    90.000000
 CELL| Numerically orthorhombic:                                             YES
 CELL| Periodicity                                                          NONE

 CELL_REF| Volume [angstrom^3]:                                      2744.000000
 CELL_REF| Vector a [angstrom    14.000     0.000     0.000   |a| =    14.000000
 CELL_REF| Vector b [angstrom     0.000    14.000     0.000   |b| =    14.000000
 CELL_REF| Vector c [angstrom     0.000     0.000    14.000   |c| =    14.000000
 CELL_REF| Angle (b,c), alpha [degree]:                                90.000000
 CELL_REF| Angle (a,c), beta  [degree]:                                90.000000
 CELL_REF| Angle (a,b), gamma [degree]:                                90.000000
 CELL_REF| Numerically orthorhombic:                                         YES
 CELL_REF| Periodicity                                                      NONE

 *******************************************************************************
 *******************************************************************************
 **                                                                           **
 **     #####                         ##              ##                      **
 **    ##   ##            ##          ##              ##                      **
 **   ##     ##                       ##            ######                    **
 **   ##     ##  ##   ##  ##   #####  ##  ##   ####   ##    #####    #####    **
 **   ##     ##  ##   ##  ##  ##      ## ##   ##      ##   ##   ##  ##   ##   **
 **   ##  ## ##  ##   ##  ##  ##      ####     ###    ##   ######   ######    **
 **    ##  ###   ##   ##  ##  ##      ## ##      ##   ##   ##       ##        **
 **     #######   #####   ##   #####  ##  ##  ####    ##    #####   ##        **
 **           ##                                                    ##        **
 **                                                                           **
 **                                                ... make the atoms dance   **
 **                                                                           **
 **            Copyright (C) by CP2K developers group (2000-2024)             **
 **                      J. Chem. Phys. 152, 194103 (2020)                    **
 **                                                                           **
 *******************************************************************************

 DFT| Spin restricted Kohn-Sham (RKS) calculation                            RKS
 DFT| Multiplicity                                                             1
 DFT| Number of spin states                                                    1
 DFT| Charge                                                                   0
 DFT| Self-interaction correction (SIC)                                       NO
 DFT| Cutoffs: density                                              1.000000E-10
 DFT|          gradient                                             1.000000E-10
 DFT|          tau                                                  1.000000E-10
 DFT|          cutoff_smoothing_range                               0.000000E+00
 DFT| XC density smoothing                                                  NONE
 DFT| XC derivatives                                                          PW

 FUNCTIONAL| BECKE88:
 FUNCTIONAL| A. Becke, Phys. Rev. A 38, 3098 (1988) {LDA version}               
 FUNCTIONAL| LYP:
 FUNCTIONAL| C. Lee, W. Yang, R.G. Parr, Phys. Rev. B, 37, 785 (1988) {LDA versi
 FUNCTIONAL| on}                                                                
 FUNCTIONAL| VWN:
 FUNCTIONAL| S. H. Vosko, L. Wilk and M. Nusair, Can. J. Phys. 58, 1200 (1980) {
 FUNCTIONAL| LDA version}                                                       
 FUNCTIONAL| XALPHA:
 FUNCTIONAL| Dirac/Slater local exchange; parameter=  0.666 {LDA}               

 vdW POTENTIAL|                                                   Pair Potential
 vdW POTENTIAL|          DFT-D3 (Version 3.1)
 vdW POTENTIAL|          Potential Form: S. Grimme et al, JCP 132: 154104 (2010)
 vdW POTENTIAL|          Zero Damping
 vdW POTENTIAL|          Cutoff Radius [Bohr]:                             37.79
 vdW POTENTIAL|          s6 Scaling Factor:                               1.0000
 vdW POTENTIAL|          sr6 Scaling Factor:                              1.2610
 vdW POTENTIAL|          s8 Scaling Factor:                               1.7030
 vdW POTENTIAL|          Cutoff for CN calculation:                   0.1000E-05

 QS| Method:                                                                GAPW
 QS| Density plane wave grid type                        NON-SPHERICAL FULLSPACE
 QS| Number of grid levels:                                                    4
 QS| Density cutoff [a.u.]:                                                200.0
 QS| Multi grid cutoff [a.u.]: 1) grid level                               200.0
 QS|                           2) grid level                                66.7
 QS|                           3) grid level                                22.2
 QS|                           4) grid level                                 7.4
 QS| Grid level progression factor:                                          3.0
 QS| Relative density cutoff [a.u.]:                                        30.0
 QS| Interaction thresholds: eps_pgf_orb:                                1.0E-07
 QS|                         eps_filter_matrix:                          0.0E+00
 QS|                         eps_core_charge:                            1.0E-16
 QS|                         eps_rho_gspace:                             1.0E-14
 QS|                         eps_rho_rspace:                             1.0E-14
 QS|                         eps_gvg_rspace:                             1.0E-07
 QS|                         eps_ppl:                                    1.0E-02
 QS|                         eps_ppnl:                                   1.0E-09
 QS| GAPW|      One center basis extended with primitives (small:s)
 QS| GAPW|                   eps_fit:                                    1.0E-04
 QS| GAPW|                   eps_iso:                                    1.0E-12
 QS| GAPW|                   eps_svd:                                    1.0E-08
 QS| GAPW|                   eps_cpc:                                    1.0E-14
 QS| GAPW|   atom-r-grid: quadrature:                                     GC_LOG
 QS| GAPW|      atom-s-grid:  max l :                                          6
 QS| GAPW|      max_l_rho0 :                                                   4


 ATOMIC KIND INFORMATION

  1. Atomic kind: n                                     Number of atoms:       2

     Orbital Basis Set                                        Ahlrichs-def2-TZVP

       Number of orbital shell sets:                                          11
       Number of orbital shells:                                              11
       Number of primitive Cartesian functions:                               20
       Number of Cartesian basis functions:                                   36
       Number of spherical basis functions:                                   31
       Norm type:                                                              2

       Normalised Cartesian orbitals:

                        Set   Shell   Orbital            Exponent    Coefficient

                          1       1    1s            19730.800647       0.695604
                                                      2957.895874       1.298610
                                                       673.221336       2.219088
                                                       190.682495       3.463661
                                                        62.295442       4.696756
                                                        22.654161       4.952251

                          2       1    1s                8.979148       2.388068
                                                         3.686300       0.733788

                          3       1    1s                0.846601       0.629027

                          4       1    1s                0.336471       0.314863

                          5       1    1s                0.136477       0.160031

                          6       1    1px              49.200381       2.126481
                                                        11.346791       2.327937
                                                         3.427397       2.048573
                                                         1.178553       1.260732
                          6       1    1py              49.200381       2.126481
                                                        11.346791       2.327937
                                                         3.427397       2.048573
                                                         1.178553       1.260732
                          6       1    1pz              49.200381       2.126481
                                                        11.346791       2.327937
                                                         3.427397       2.048573
                                                         1.178553       1.260732

                          7       1    1px               0.416422       0.476823
                          7       1    1py               0.416422       0.476823
                          7       1    1pz               0.416422       0.476823

                          8       1    1px               0.142608       0.124917
                          8       1    1py               0.142608       0.124917
                          8       1    1pz               0.142608       0.124917

                          9       1    1dx2              1.654000       3.970513
                          9       1    1dxy              1.654000       6.877130
                          9       1    1dxz              1.654000       6.877130
                          9       1    1dy2              1.654000       3.970513
                          9       1    1dyz              1.654000       6.877130
                          9       1    1dz2              1.654000       3.970513

                         10       1    1dx2              0.469000       0.437484
                         10       1    1dxy              0.469000       0.757744
                         10       1    1dxz              0.469000       0.757744
                         10       1    1dy2              0.469000       0.437484
                         10       1    1dyz              0.469000       0.757744
                         10       1    1dz2              0.469000       0.437484

                         11       1    1fx3              1.093000       1.798249
                         11       1    1fx2y             1.093000       4.021007
                         11       1    1fx2z             1.093000       4.021007
                         11       1    1fxy2             1.093000       4.021007
                         11       1    1fxyz             1.093000       6.964588
                         11       1    1fxz2             1.093000       4.021007
                         11       1    1fy3              1.093000       1.798249
                         11       1    1fy2z             1.093000       4.021007
                         11       1    1fyz2             1.093000       4.021007
                         11       1    1fz3              1.093000       1.798249

       Atomic covalent radius [Angstrom]:                                  0.750

       Atomic van der Waals radius [Angstrom]:                             1.550

     The atoms of this atomic kind are PAW atoms (GAPW):
       Hard Gaussian function radius:                                      1.400
       Rho0 radius:                                                        1.400
       Maximum GTO radius used for PAW projector construction:            24.566

     GAPW Soft Basis Set                                 Ahlrichs-def2-TZVP_soft

       Number of orbital shell sets:                                          11
       Number of orbital shells:                                              11
       Number of primitive Cartesian functions:                               11
       Number of Cartesian basis functions:                                   36
       Number of spherical basis functions:                                   31
       Norm type:                                                              2

       Normalised Cartesian orbitals:

                        Set   Shell   Orbital            Exponent    Coefficient

                          1       1    1s         

                          2       1    1s                3.686300       0.733788

                          3       1    1s                0.846601       0.629027

                          4       1    1s                0.336471       0.314863

                          5       1    1s                0.136477       0.160031

                          6       1    1px               3.427397       2.048573
                                                         1.178553       1.260732
                          6       1    1py               3.427397       2.048573
                                                         1.178553       1.260732
                          6       1    1pz               3.427397       2.048573
                                                         1.178553       1.260732

                          7       1    1px               0.416422       0.476823
                          7       1    1py               0.416422       0.476823
                          7       1    1pz               0.416422       0.476823

                          8       1    1px               0.142608       0.124917
                          8       1    1py               0.142608       0.124917
                          8       1    1pz               0.142608       0.124917

                          9       1    1dx2              1.654000       3.970513
                          9       1    1dxy              1.654000       6.877130
                          9       1    1dxz              1.654000       6.877130
                          9       1    1dy2              1.654000       3.970513
                          9       1    1dyz              1.654000       6.877130
                          9       1    1dz2              1.654000       3.970513

                         10       1    1dx2              0.469000       0.437484
                         10       1    1dxy              0.469000       0.757744
                         10       1    1dxz              0.469000       0.757744
                         10       1    1dy2              0.469000       0.437484
                         10       1    1dyz              0.469000       0.757744
                         10       1    1dz2              0.469000       0.437484

                         11       1    1fx3              1.093000       1.798249
                         11       1    1fx2y             1.093000       4.021007
                         11       1    1fx2z             1.093000       4.021007
                         11       1    1fxy2             1.093000       4.021007
                         11       1    1fxyz             1.093000       6.964588
                         11       1    1fxz2             1.093000       4.021007
                         11       1    1fy3              1.093000       1.798249
                         11       1    1fy2z             1.093000       4.021007
                         11       1    1fyz2             1.093000       4.021007
                         11       1    1fz3              1.093000       1.798249

     AE Potential information for                                            ALL

       Description:                                       All-electron potential
                                          Krack, Parrinello, PCCP 2, 2105 (2000)

       Gaussian exponent of the core charge distribution:               5.979100
       Electronic configuration (s p d ...):                           4   3   0

  2. Atomic kind: c                                     Number of atoms:       4

     Orbital Basis Set                                        Ahlrichs-def2-TZVP

       Number of orbital shell sets:                                          11
       Number of orbital shells:                                              11
       Number of primitive Cartesian functions:                               20
       Number of Cartesian basis functions:                                   36
       Number of spherical basis functions:                                   31
       Norm type:                                                              2

       Normalised Cartesian orbitals:

                        Set   Shell   Orbital            Exponent    Coefficient

                          1       1    1s            13575.349682       0.543591
                                                      2035.233368       1.014554
                                                       463.225624       1.731573
                                                       131.200196       2.691038
                                                        42.853016       3.604455
                                                        15.584186       3.702556

                          2       1    1s                6.206714       1.838354
                                                         2.576490       0.544758

                          3       1    1s                0.576963       0.471815

                          4       1    1s                0.229728       0.236494

                          5       1    1s                0.095164       0.122114

                          6       1    1px              34.697232       1.359665
                                                         7.958262       1.451259
                                                         2.378083       1.270923
                                                         0.814332       0.802572
                          6       1    1py              34.697232       1.359665
                                                         7.958262       1.451259
                                                         2.378083       1.270923
                                                         0.814332       0.802572
                          6       1    1pz              34.697232       1.359665
                                                         7.958262       1.451259
                                                         2.378083       1.270923
                                                         0.814332       0.802572

                          7       1    1px               0.288875       0.301876
                          7       1    1py               0.288875       0.301876
                          7       1    1pz               0.288875       0.301876

                          8       1    1px               0.100568       0.080727
                          8       1    1py               0.100568       0.080727
                          8       1    1pz               0.100568       0.080727

                          9       1    1dx2              1.097000       1.935401
                          9       1    1dxy              1.097000       3.352214
                          9       1    1dxz              1.097000       3.352214
                          9       1    1dy2              1.097000       1.935401
                          9       1    1dyz              1.097000       3.352214
                          9       1    1dz2              1.097000       1.935401

                         10       1    1dx2              0.318000       0.221644
                         10       1    1dxy              0.318000       0.383899
                         10       1    1dxz              0.318000       0.383899
                         10       1    1dy2              0.318000       0.221644
                         10       1    1dyz              0.318000       0.383899
                         10       1    1dz2              0.318000       0.221644

                         11       1    1fx3              0.761000       0.796288
                         11       1    1fx2y             0.761000       1.780553
                         11       1    1fx2z             0.761000       1.780553
                         11       1    1fxy2             0.761000       1.780553
                         11       1    1fxyz             0.761000       3.084008
                         11       1    1fxz2             0.761000       1.780553
                         11       1    1fy3              0.761000       0.796288
                         11       1    1fy2z             0.761000       1.780553
                         11       1    1fyz2             0.761000       1.780553
                         11       1    1fz3              0.761000       0.796288

       Atomic covalent radius [Angstrom]:                                  0.770

       Atomic van der Waals radius [Angstrom]:                             1.700

     The atoms of this atomic kind are PAW atoms (GAPW):
       Hard Gaussian function radius:                                      1.520
       Rho0 radius:                                                        1.520
       Maximum GTO radius used for PAW projector construction:            24.566

     GAPW Soft Basis Set                                 Ahlrichs-def2-TZVP_soft

       Number of orbital shell sets:                                          11
       Number of orbital shells:                                              11
       Number of primitive Cartesian functions:                               11
       Number of Cartesian basis functions:                                   36
       Number of spherical basis functions:                                   31
       Norm type:                                                              2

       Normalised Cartesian orbitals:

                        Set   Shell   Orbital            Exponent    Coefficient

                          1       1    1s         

                          2       1    1s                2.576490       0.544758

                          3       1    1s                0.576963       0.471815

                          4       1    1s                0.229728       0.236494

                          5       1    1s                0.095164       0.122114

                          6       1    1px               2.378083       1.270923
                                                         0.814332       0.802572
                          6       1    1py               2.378083       1.270923
                                                         0.814332       0.802572
                          6       1    1pz               2.378083       1.270923
                                                         0.814332       0.802572

                          7       1    1px               0.288875       0.301876
                          7       1    1py               0.288875       0.301876
                          7       1    1pz               0.288875       0.301876

                          8       1    1px               0.100568       0.080727
                          8       1    1py               0.100568       0.080727
                          8       1    1pz               0.100568       0.080727

                          9       1    1dx2              1.097000       1.935401
                          9       1    1dxy              1.097000       3.352214
                          9       1    1dxz              1.097000       3.352214
                          9       1    1dy2              1.097000       1.935401
                          9       1    1dyz              1.097000       3.352214
                          9       1    1dz2              1.097000       1.935401

                         10       1    1dx2              0.318000       0.221644
                         10       1    1dxy              0.318000       0.383899
                         10       1    1dxz              0.318000       0.383899
                         10       1    1dy2              0.318000       0.221644
                         10       1    1dyz              0.318000       0.383899
                         10       1    1dz2              0.318000       0.221644

                         11       1    1fx3              0.761000       0.796288
                         11       1    1fx2y             0.761000       1.780553
                         11       1    1fx2z             0.761000       1.780553
                         11       1    1fxy2             0.761000       1.780553
                         11       1    1fxyz             0.761000       3.084008
                         11       1    1fxz2             0.761000       1.780553
                         11       1    1fy3              0.761000       0.796288
                         11       1    1fy2z             0.761000       1.780553
                         11       1    1fyz2             0.761000       1.780553
                         11       1    1fz3              0.761000       0.796288

     AE Potential information for                                            ALL

       Description:                                       All-electron potential
                                          Krack, Parrinello, PCCP 2, 2105 (2000)

       Gaussian exponent of the core charge distribution:               4.109048
       Electronic configuration (s p d ...):                           4   2   0

  3. Atomic kind: h                                     Number of atoms:       4

     Orbital Basis Set                                        Ahlrichs-def2-TZVP

       Number of orbital shell sets:                                           4
       Number of orbital shells:                                               4
       Number of primitive Cartesian functions:                                6
       Number of Cartesian basis functions:                                    6
       Number of spherical basis functions:                                    6
       Norm type:                                                              2

       Normalised Cartesian orbitals:

                        Set   Shell   Orbital            Exponent    Coefficient

                          1       1    1s               34.061341       0.255630
                                                         5.123575       0.461360
                                                         1.164663       0.681121

                          2       1    1s                0.327230       0.308355

                          3       1    1s                0.103072       0.129648

                          4       1    1px               0.800000       1.078456
                          4       1    1py               0.800000       1.078456
                          4       1    1pz               0.800000       1.078456

       Atomic covalent radius [Angstrom]:                                  0.320

       Atomic van der Waals radius [Angstrom]:                             1.090

     The atoms of this atomic kind are PAW atoms (GAPW):
       Hard Gaussian function radius:                                      1.000
       Rho0 radius:                                                        1.000
       Maximum GTO radius used for PAW projector construction:            24.566

     GAPW Soft Basis Set                                 Ahlrichs-def2-TZVP_soft

       Number of orbital shell sets:                                           4
       Number of orbital shells:                                               4
       Number of primitive Cartesian functions:                                5
       Number of Cartesian basis functions:                                    6
       Number of spherical basis functions:                                    6
       Norm type:                                                              2

       Normalised Cartesian orbitals:

                        Set   Shell   Orbital            Exponent    Coefficient

                          1       1    1s                5.123575       0.461360
                                                         1.164663       0.681121

                          2       1    1s                0.327230       0.308355

                          3       1    1s                0.103072       0.129648

                          4       1    1px               0.800000       1.078456
                          4       1    1py               0.800000       1.078456
                          4       1    1pz               0.800000       1.078456

     AE Potential information for                                            ALL

       Description:                                       All-electron potential
                                          Krack, Parrinello, PCCP 2, 2105 (2000)

       Gaussian exponent of the core charge distribution:              12.500000
       Electronic configuration (s p d ...):                           1   0   0


 MOLECULE KIND INFORMATION


 All atoms are their own molecule, skipping detailed information


 TOTAL NUMBERS AND MAXIMUM NUMBERS

  Total number of            - Atomic kinds:                                   3
                             - Atoms:                                         10
                             - Shell sets:                                    82
                             - Shells:                                        82
                             - Primitive Cartesian functions:                144
                             - Cartesian basis functions:                    240
                             - Spherical basis functions:                    210

  Maximum angular momentum of the orbital basis functions:                     3


 MODULE QUICKSTEP: ATOMIC COORDINATES IN ANGSTROM

   Atom Kind Element         X             Y             Z       Z(eff)     Mass
      1    1 n     7      7.270239      8.286452      7.647862   7.0000  14.0067
      2    1 n     7      7.317890      5.923680      6.512401   7.0000  14.0067
      3    2 c     6      7.090375      7.265255      8.614559   6.0000  12.0107
      4    2 c     6      7.190455      5.859180      7.810056   6.0000  12.0107
      5    2 c     6      7.179418      8.171811      6.413198   6.0000  12.0107
      6    2 c     6      7.272838      6.978563      5.680916   6.0000  12.0107
      7    3 h     1      6.317538      7.343044      9.260713   1.0000   1.0079
      8    3 h     1      7.682462      4.955226      8.370256   1.0000   1.0079
      9    3 h     1      7.153096      9.044774      5.661543   1.0000   1.0079
     10    3 h     1      7.387969      6.932134      4.739287   1.0000   1.0079



 SCF PARAMETERS         Density guess:                                   RESTART
                        --------------------------------------------------------
                        max_scf:                                              50
                        max_scf_history:                                       0
                        max_diis:                                              4
                        --------------------------------------------------------
                        eps_scf:                                        1.00E-08
                        eps_scf_history:                                0.00E+00
                        eps_diis:                                       1.00E-01
                        eps_eigval:                                     1.00E-05
                        --------------------------------------------------------
                        level_shift [a.u.]:                             0.000000
                        --------------------------------------------------------
                        Outer loop SCF in use 
                        No variables optimised in outer loop
                        eps_scf                                         1.00E-08
                        max_scf                                              900
                        No outer loop optimization
                        step_size                                       5.00E-01

 PW_GRID| Information for grid number                                          1
 PW_GRID| Grid distributed over                                    16 processors
 PW_GRID| Real space group dimensions                                    16    1
 PW_GRID| the grid is blocked:                                                NO
 PW_GRID| Cutoff [a.u.]                                                    400.0
 PW_GRID| spherical cutoff:                                                   NO
 PW_GRID|   Bounds   1           -120     119                Points:         240
 PW_GRID|   Bounds   2           -120     119                Points:         240
 PW_GRID|   Bounds   3           -120     119                Points:         240
 PW_GRID| Volume element (a.u.^3)  0.1340E-02     Volume (a.u.^3)     18517.4301
 PW_GRID| Grid span                                                    FULLSPACE
 PW_GRID|   Distribution                         Average         Max         Min
 PW_GRID|   G-Vectors                           864000.0      864000      864000
 PW_GRID|   G-Rays                                3600.0        3600        3600
 PW_GRID|   Real Space Points                   864000.0      864000      864000

 PW_GRID| Information for grid number                                          2
 PW_GRID| Number of the reference grid                                         1
 PW_GRID| Grid distributed over                                    16 processors
 PW_GRID| Real space group dimensions                                    16    1
 PW_GRID| the grid is blocked:                                                NO
 PW_GRID| Cutoff [a.u.]                                                    200.0
 PW_GRID| spherical cutoff:                                                   NO
 PW_GRID|   Bounds   1            -90      89                Points:         180
 PW_GRID|   Bounds   2            -90      89                Points:         180
 PW_GRID|   Bounds   3            -90      89                Points:         180
 PW_GRID| Volume element (a.u.^3)  0.3175E-02     Volume (a.u.^3)     18517.4301
 PW_GRID| Grid span                                                    FULLSPACE
 PW_GRID|   Distribution                         Average         Max         Min
 PW_GRID|   G-Vectors                           364500.0      364680      364320
 PW_GRID|   G-Rays                                2025.0        2026        2024
 PW_GRID|   Real Space Points                   364500.0      388800      356400

 PW_GRID| Information for grid number                                          3
 PW_GRID| Number of the reference grid                                         2
 PW_GRID| Grid distributed over                                    16 processors
 PW_GRID| Real space group dimensions                                    16    1
 PW_GRID| the grid is blocked:                                                NO
 PW_GRID| Cutoff [a.u.]                                                     66.7
 PW_GRID| spherical cutoff:                                                   NO
 PW_GRID|   Bounds   1            -50      49                Points:         100
 PW_GRID|   Bounds   2            -50      49                Points:         100
 PW_GRID|   Bounds   3            -50      49                Points:         100
 PW_GRID| Volume element (a.u.^3)  0.1852E-01     Volume (a.u.^3)     18517.4301
 PW_GRID| Grid span                                                    FULLSPACE
 PW_GRID|   Distribution                         Average         Max         Min
 PW_GRID|   G-Vectors                            62500.0       62600       62400
 PW_GRID|   G-Rays                                 625.0         626         624
 PW_GRID|   Real Space Points                    62500.0       70000       60000

 PW_GRID| Information for grid number                                          4
 PW_GRID| Number of the reference grid                                         2
 PW_GRID| Grid distributed over                                    16 processors
 PW_GRID| Real space group dimensions                                    16    1
 PW_GRID| the grid is blocked:                                                NO
 PW_GRID| Cutoff [a.u.]                                                     22.2
 PW_GRID| spherical cutoff:                                                   NO
 PW_GRID|   Bounds   1            -30      29                Points:          60
 PW_GRID|   Bounds   2            -30      29                Points:          60
 PW_GRID|   Bounds   3            -30      29                Points:          60
 PW_GRID| Volume element (a.u.^3)  0.8573E-01     Volume (a.u.^3)     18517.4301
 PW_GRID| Grid span                                                    FULLSPACE
 PW_GRID|   Distribution                         Average         Max         Min
 PW_GRID|   G-Vectors                            13500.0       13560       13440
 PW_GRID|   G-Rays                                 225.0         226         224
 PW_GRID|   Real Space Points                    13500.0       14400       10800

 PW_GRID| Information for grid number                                          5
 PW_GRID| Number of the reference grid                                         2
 PW_GRID| Grid distributed over                                    16 processors
 PW_GRID| Real space group dimensions                                    16    1
 PW_GRID| the grid is blocked:                                                NO
 PW_GRID| Cutoff [a.u.]                                                      7.4
 PW_GRID| spherical cutoff:                                                   NO
 PW_GRID|   Bounds   1            -18      17                Points:          36
 PW_GRID|   Bounds   2            -18      17                Points:          36
 PW_GRID|   Bounds   3            -18      17                Points:          36
 PW_GRID| Volume element (a.u.^3)  0.3969         Volume (a.u.^3)     18517.4301
 PW_GRID| Grid span                                                    FULLSPACE
 PW_GRID|   Distribution                         Average         Max         Min
 PW_GRID|   G-Vectors                             2916.0        2952        2880
 PW_GRID|   G-Rays                                  81.0          82          80
 PW_GRID|   Real Space Points                     2916.0        3888        2592

 POISSON| Solver                                          Martyna-Tuckerman (MT)
 POISSON| MT| Alpha                                                        7.000
 POISSON| MT| Relative cutoff                                                2.0
 POISSON| Periodicity                                                       NONE

 RS_GRID| Information for grid number                                          2
 RS_GRID|   Bounds   1            -90      89                Points:         180
 RS_GRID|   Bounds   2            -90      89                Points:         180
 RS_GRID|   Bounds   3            -90      89                Points:         180
 RS_GRID| Real space distribution over                                  4 groups
 RS_GRID| Real space distribution along direction                              2
 RS_GRID| Border size                                                         31
 RS_GRID| Real space distribution over                                  4 groups
 RS_GRID| Real space distribution along direction                              3
 RS_GRID| Border size                                                         31
 RS_GRID|   Distribution                         Average         Max         Min
 RS_GRID|   Planes                                 107.0         107         107
 RS_GRID|   Distribution                         Average         Max         Min
 RS_GRID|   Planes                                 107.0         107         107

 RS_GRID| Information for grid number                                          3
 RS_GRID|   Bounds   1            -50      49                Points:         100
 RS_GRID|   Bounds   2            -50      49                Points:         100
 RS_GRID|   Bounds   3            -50      49                Points:         100
 RS_GRID| Real space fully replicated
 RS_GRID| Group size                                                           1

 RS_GRID| Information for grid number                                          4
 RS_GRID|   Bounds   1            -30      29                Points:          60
 RS_GRID|   Bounds   2            -30      29                Points:          60
 RS_GRID|   Bounds   3            -30      29                Points:          60
 RS_GRID| Real space fully replicated
 RS_GRID| Group size                                                           1

 RS_GRID| Information for grid number                                          5
 RS_GRID|   Bounds   1            -18      17                Points:          36
 RS_GRID|   Bounds   2            -18      17                Points:          36
 RS_GRID|   Bounds   3            -18      17                Points:          36
 RS_GRID| Real space fully replicated
 RS_GRID| Group size                                                           1

  HFX_INFO| Replica ID:                                                        1
  HFX_INFO| FRACTION:                                               0.2000000000
  HFX_INFO| Interaction Potential:                                       COULOMB
  HFX_INFO| EPS_SCHWARZ:                                                 1.0E-10
  HFX_INFO| EPS_SCHWARZ_FORCES                                           1.0E-08
  HFX_INFO| EPS_STORAGE_SCALING:                                         1.0E+00
  HFX_INFO| NBINS:                                                            64
  HFX_INFO| BLOCK_SIZE:                                                        1
  HFX_INFO| Number of periodic shells considered:                           NONE
  HFX_INFO| Number of periodic cells considered:                            NONE


 Number of electrons:                                                         42
 Number of occupied orbitals:                                                 21
 Number of molecular orbitals:                                                21

 Number of orbital functions:                                                210
 Number of independent orbital functions:                                    210

 Extrapolation method: initial_guess


 SCF WAVEFUNCTION OPTIMIZATION

  ----------------------------------- OT ---------------------------------------
  Minimizer      : DIIS                : direct inversion
                                         in the iterative subspace
                                         using   7 DIIS vectors
                                         safer DIIS on
  Preconditioner : FULL_ALL            : diagonalization, state selective
  Precond_solver : DEFAULT
  stepsize       :    0.15000000                  energy_gap     :    0.08000000
  eps_taylor     :   0.10000E-15                  max_taylor     :             4
  ----------------------------------- OT ---------------------------------------

  Step     Update method      Time    Convergence         Total energy    Change
  ------------------------------------------------------------------------------

  HFX_MEM_INFO| Est. max. program size before HFX [MiB]:                     642
  HFX_MEM_INFO| Number of cart. primitive ERI's calculated:           1710969864
  HFX_MEM_INFO| Number of sph. ERI's calculated:                       315978237
  HFX_MEM_INFO| Number of sph. ERI's stored in-core:                   315978237
  HFX_MEM_INFO| Number of sph. ERI's stored on disk:                           0
  HFX_MEM_INFO| Number of sph. ERI's calculated on the fly:                    0
  HFX_MEM_INFO| Total memory consumption ERI's RAM [MiB]:                    935
  HFX_MEM_INFO| Whereof max-vals [MiB]:                                        5
  HFX_MEM_INFO| Total compression factor ERI's RAM:                         2.58
  HFX_MEM_INFO| Total memory consumption ERI's disk [MiB]:                     0
  HFX_MEM_INFO| Total compression factor ERI's disk:                        0.00
  HFX_MEM_INFO| Size of density/Fock matrix [MiB]:                             0
  HFX_MEM_INFO| Size of buffers [MiB]:                                         0
  HFX_MEM_INFO| Est. max. program size after HFX  [MiB]:                     699

     1 OT DIIS     0.15E+00    3.8     0.01710820      -263.9658016998 -2.64E+02
     2 OT DIIS     0.15E+00    0.7     0.00738270      -264.1001209642 -1.34E-01
     3 OT DIIS     0.15E+00    0.7     0.00311629      -264.1287928031 -2.87E-02
     4 OT DIIS     0.15E+00    0.7     0.00112748      -264.1309969190 -2.20E-03
     5 OT DIIS     0.15E+00    0.7     0.00053778      -264.1312362517 -2.39E-04
     6 OT DIIS     0.15E+00    0.7     0.00022547      -264.1312875853 -5.13E-05
     7 OT DIIS     0.15E+00    0.7     0.00007745      -264.1313014442 -1.39E-05
     8 OT DIIS     0.15E+00    0.7     0.00003405      -264.1313032225 -1.78E-06
     9 OT DIIS     0.15E+00    0.7     0.00000844      -264.1313035886 -3.66E-07
    10 OT DIIS     0.15E+00    0.7     0.00000271      -264.1313036247 -3.62E-08
    11 OT DIIS     0.15E+00    0.7     0.00000115      -264.1313036282 -3.52E-09
    12 OT DIIS     0.15E+00    0.7     0.00000053      -264.1313036288 -5.39E-10
    13 OT DIIS     0.15E+00    0.7     0.00000027      -264.1313036289 -7.51E-11
    14 OT DIIS     0.15E+00    0.7     0.00000017      -264.1313036289  2.33E-12
    15 OT DIIS     0.15E+00    0.7     0.00000006      -264.1313036288  6.37E-12
    16 OT DIIS     0.15E+00    0.7     0.00000003      -264.1313036288  1.00E-11
    17 OT DIIS     0.15E+00    0.7     0.00000001      -264.1313036288  1.39E-11
    18 OT DIIS     0.15E+00    0.7     4.6148E-09      -264.1313036288  1.06E-11

  *** SCF run converged in    18 steps ***


  Electronic density on regular grids:        -30.6481228501       11.3518771499
  Core density on regular grids:               42.0000000000       -0.0000000000
  Hard and soft densities (Lebedev):          -97.0553874116      -85.7035102590
  Total Rho_soft + Rho1_hard - Rho1_soft      -42.0000000027
  Total charge density (r-space):              -0.0000000027
  Total Rho_soft + Rho0_soft (g-space):        -0.0000000285

  Overlap energy of the core charge distribution:               0.00003983187929
  Self energy of the core charge distribution:               -217.69203579805162
  Core Hamiltonian energy:                                    -41.86630857896892
  Hartree energy:                                             109.80128555218165
  Exchange-correlation energy:                                -11.20088151702605
  Hartree-Fock Exchange energy:                                -7.05006791289907
  Dispersion energy:                                           -0.00396162167741

  GAPW| Exc from hard and soft atomic rho1:                   -18.55275180117367
  GAPW| local Eh = 1 center integrals:                        -77.56662178307910

  Total energy:                                              -264.13130362881492

  outer SCF iter =    1 RMS gradient =   0.46E-08 energy =       -264.1313036288
  outer SCF loop converged in   1 iterations or   18 steps


 !-----------------------------------------------------------------------------!
                     Mulliken Population Analysis

 #  Atom  Element  Kind  Atomic population                           Net charge
       1     n        1          7.155826                             -0.155826
       2     n        1          7.182869                             -0.182869
       3     c        2          6.029207                             -0.029207
       4     c        2          6.063019                             -0.063019
       5     c        2          6.055866                             -0.055866
       6     c        2          6.008911                             -0.008911
       7     h        3          0.854080                              0.145920
       8     h        3          0.877630                              0.122370
       9     h        3          0.915042                              0.084958
      10     h        3          0.857550                              0.142450
 # Total charge                             42.000000                  0.000000

 !-----------------------------------------------------------------------------!

 !-----------------------------------------------------------------------------!
                           Hirshfeld Charges

  #Atom  Element  Kind  Ref Charge     Population                    Net charge
      1       n      1       7.000          7.274                        -0.274
      2       n      1       7.000          7.290                        -0.290
      3       c      2       6.000          6.348                        -0.348
      4       c      2       6.000          6.363                        -0.363
      5       c      2       6.000          6.344                        -0.344
      6       c      2       6.000          6.322                        -0.322
      7       h      3       1.000          0.498                         0.502
      8       h      3       1.000          0.512                         0.488
      9       h      3       1.000          0.526                         0.474
     10       h      3       1.000          0.511                         0.489

  Total Charge                                                            0.012
 !-----------------------------------------------------------------------------!

 *******************************************************************************
 **                                                                           **
 **         ######## #######   #######   ######## #######  ########           **
 **            ##    ##     ## ##     ## ##       ##   ##     ##              **
 **            ##    ##     ## ##     ## ######   #######     ##              **
 **            ##    ##     ## ##     ## ##       ##          ##              **
 **            ##    #######   #######   ##       ##          ##              **
 **                                                                           **
 *******************************************************************************
 KERNEL|                                                                    FULL
 FUNCTIONAL| BECKE88:
 FUNCTIONAL| A. Becke, Phys. Rev. A 38, 3098 (1988) {LDA version}               
 FUNCTIONAL| LYP:
 FUNCTIONAL| C. Lee, W. Yang, R.G. Parr, Phys. Rev. B, 37, 785 (1988) {LDA versi
 FUNCTIONAL| on}                                                                
 FUNCTIONAL| VWN:
 FUNCTIONAL| S. H. Vosko, L. Wilk and M. Nusair, Can. J. Phys. 58, 1200 (1980) {
 FUNCTIONAL| LDA version}                                                       
 FUNCTIONAL| XALPHA:
 FUNCTIONAL| Dirac/Slater local exchange; parameter=  0.666 {LDA}               
 KERNEL|                                                          Exact Exchange
 KERNEL| Spin symmetry of excitations                                    Singlet
 TDDFPT| Number of states calculated                                           9
 TDDFPT| Number of Davidson iterations                                       100
 TDDFPT| Davidson iteration convergence                                0.367E-09
 TDDFPT| Max. number of Krylov space vectors                                5000
 TDDFPT| Molecular Orbitals:        Spin       AOs       Occ      Virt     Total
 TDDFPT|                               1       210        21       189       210
 
 -------------------------------------------------------------------------------
 -                            TDDFPT Initial Guess                             -
 -------------------------------------------------------------------------------
          State         Occupied      ->      Virtual          Excitation
          number         orbital              orbital          energy (eV)
 -------------------------------------------------------------------------------
             1               21                   22              3.30810
             2               20                   22              4.46295
             3               21                   23              4.84681
             4               19                   22              5.39495
             5               20                   23              6.00167
             6               18                   22              6.69338
             7               19                   23              6.93367
             8               21                   24              7.49109
             9               21                   25              7.74454

      Number of active states:                                       3969
 -------------------------------------------------------------------------------
 
 -------------------------------------------------------------------------------
 -                      TDDFPT WAVEFUNCTION OPTIMIZATION                       -
 -------------------------------------------------------------------------------

          Step            Time         Convergence           Conv. states
 -------------------------------------------------------------------------------

    State    Exc. energy (eV)      Convergence (eV)
        1       2.1038092            -1.2043E+00
        2       3.6189351            -8.4402E-01
        3       4.1758552            -6.7096E-01
        4       5.2419830            -1.5297E-01
        5       5.9577646            -4.3903E-02
        6       6.5131984            -1.8018E-01
        7       6.7690224            -1.6464E-01
        8       7.1637043            -3.2739E-01
        9       8.8532365             1.1087E+00

             1             7.2          4.4257E-02                      0

    State    Exc. energy (eV)      Convergence (eV)
        1       2.0207359            -8.3073E-02
        2       3.5456755            -7.3260E-02
        3       4.0974301            -7.8425E-02
        4       4.7789174            -4.6307E-01
        5       5.4197411            -5.3802E-01
        6       5.6292807            -8.8392E-01
        7       6.3615059            -4.0752E-01
        8       6.8130802            -3.5062E-01
        9       7.4341373            -1.4191E+00

             2             7.2          5.2151E-02                      0

    State    Exc. energy (eV)      Convergence (eV)
        1       2.0148734            -5.8624E-03
        2       3.5396360            -6.0395E-03
        3       4.0940971            -3.3330E-03
        4       4.7552989            -2.3619E-02
        5       5.3896086            -3.0132E-02
        6       5.6082758            -2.1005E-02
        7       6.3245338            -3.6972E-02
        8       6.7587631            -5.4317E-02
        9       7.0466183            -3.8752E-01

             3             7.2          1.4241E-02                      0

    State    Exc. energy (eV)      Convergence (eV)
        1       2.0147763            -9.7126E-05
        2       3.5394259            -2.1010E-04
        3       4.0940264            -7.0650E-05
        4       4.7546104            -6.8844E-04
        5       5.3886003            -1.0083E-03
        6       5.6071427            -1.1331E-03
        7       6.3202995            -4.2342E-03
        8       6.7529901            -5.7730E-03
        9       7.0257732            -2.0845E-02

             4             7.2          7.6604E-04                      0

    State    Exc. energy (eV)      Convergence (eV)
        1       2.0147757            -6.2816E-07
        2       3.5394226            -3.2753E-06
        3       4.0940253            -1.1346E-06
        4       4.7545994            -1.0974E-05
        5       5.3885689            -3.1381E-05
        6       5.6071147            -2.7994E-05
        7       6.3200630            -2.3649E-04
        8       6.7521761            -8.1403E-04
        9       7.0209032            -4.8700E-03

             5             7.2          1.7897E-04                      0

    State    Exc. energy (eV)      Convergence (eV)
        1       2.0147757            -5.9628E-09
        2       3.5394226            -4.9783E-08
        3       4.0940253            -1.3279E-08
        4       4.7545993            -1.6250E-07
        5       5.3885683            -6.2878E-07
        6       5.6071139            -7.8245E-07
        7       6.3200509            -1.2101E-05
        8       6.7520944            -8.1677E-05
        9       7.0198779            -1.0253E-03

             6             7.2          3.7681E-05                      1

    State    Exc. energy (eV)      Convergence (eV)
        1       2.0147757            -3.5598E-11
        2       3.5394226            -4.0058E-10
        3       4.0940253            -1.1602E-10
        4       4.7545993            -2.5051E-09
        5       5.3885683            -9.5627E-09
        6       5.6071139            -1.7059E-08
        7       6.3200504            -5.3465E-07
        8       6.7520892            -5.2173E-06
        9       7.0197358            -1.4205E-04

             7             7.1          5.2204E-06                      5

    State    Exc. energy (eV)      Convergence (eV)
        1       2.0147757            -1.4728E-13
        2       3.5394226            -3.4712E-12
        3       4.0940253            -1.1473E-12
        4       4.7545993            -3.5159E-11
        5       5.3885683            -1.4769E-10
        6       5.6071139            -1.5940E-10
        7       6.3200504            -1.2433E-08
        8       6.7520890            -2.4874E-07
        9       7.0197204            -1.5435E-05

             8             7.1          5.6723E-07                      6

    State    Exc. energy (eV)      Convergence (eV)
        1       2.0147757            -1.5483E-14
        2       3.5394226            -1.5861E-14
        3       4.0940253            -1.6616E-14
        4       4.7545993            -2.4546E-13
        5       5.3885683            -1.3066E-12
        6       5.6071139            -1.5339E-12
        7       6.3200504            -2.2934E-10
        8       6.7520889            -7.2885E-09
        9       7.0197198            -5.7463E-07

             9             7.1          2.1117E-08                      8

    State    Exc. energy (eV)      Convergence (eV)
        1       2.0147757             4.9092E-15
        2       3.5394226            -2.2658E-15
        3       4.0940253             1.1329E-14
        4       4.7545993             1.5105E-15
        5       5.3885683            -1.2840E-14
        6       5.6071139            -1.0574E-14
        7       6.3200504            -2.8791E-12
        8       6.7520889            -1.6223E-10
        9       7.0197198            -1.5471E-08

            10             7.1          5.6854E-10                      8

    State    Exc. energy (eV)      Convergence (eV)
        1       2.0147757            -1.1329E-15
        2       3.5394226             2.0392E-14
        3       4.0940253             3.7763E-15
        4       4.7545993             6.0421E-15
        5       5.3885683            -6.7974E-15
        6       5.6071139            -7.5527E-16
        7       6.3200504            -3.3232E-14
        8       6.7520889            -2.5498E-12
        9       7.0197198            -3.4216E-10

            11             7.1          1.2574E-11                      9
 ------------------------- Restart Davidson iterations -------------------------

    State    Exc. energy (eV)      Convergence (eV)
        1       2.0147757             1.8882E-15
        2       3.5394226            -1.4350E-14
        3       4.0940253            -6.0421E-15
        4       4.7545993            -1.0574E-14
        5       5.3885683             2.2658E-15
        6       5.6071139            -2.2658E-15
        7       6.3200504             6.7974E-15
        8       6.7520889             5.9666E-14
        9       7.0197198             6.1932E-14

            12             7.1          2.2760E-15                      9
 
 -------------------------------------------------------------------------------
 -  TDDFPT run converged in 12 iteration(s) 
 -------------------------------------------------------------------------------

 R-TDDFPT states of multiplicity 1
 Transition dipoles calculated using length formulation

         State    Excitation        Transition dipole (a.u.)        Oscillator
         number   energy (eV)       x           y           z     strength (a.u.)
         ------------------------------------------------------------------------
 TDDFPT|      1       2.01478   8.8669E-02  2.1165E-03 -1.3984E-02   3.97959E-04
 TDDFPT|      2       3.53942  -1.7245E-01  1.6643E-01 -1.6017E-01   7.20525E-03
 TDDFPT|      3       4.09403  -3.7226E-03 -1.6508E-01 -6.8305E-02   3.20283E-03
 TDDFPT|      4       4.75460  -2.6491E-02 -2.5027E-01 -1.0808E+00   1.43456E-01
 TDDFPT|      5       5.38857   1.1027E-01  7.2554E-01  5.6944E-01   1.13910E-01
 TDDFPT|      6       5.60711  -1.7248E-02 -5.3678E-03  1.9391E-01   5.21030E-03
 TDDFPT|      7       6.32005  -2.9162E-02 -2.7512E-01  1.2332E-01   1.42060E-02
 TDDFPT|      8       6.75209   1.5519E-02  3.1877E-01  2.1055E-02   1.69227E-02
 TDDFPT|      9       7.01972  -2.1331E-02  1.1846E+00 -9.8447E-01   4.08096E-01

 TDDFPT : CheckSum  =  0.582498E+00
 
 -------------------------------------------------------------------------------
 -                            Excitation analysis                              -
 -------------------------------------------------------------------------------
        State             Occupied              Virtual             Excitation
        number             orbital              orbital             amplitude
 -------------------------------------------------------------------------------
             1   2.01478 eV
                                21                   22               0.996762
             2   3.53942 eV
                                21                   23               0.981501
                                19                   22               0.092771
                                20                   23               0.092475
                                20                   22               0.079563
                                18                   22              -0.074901
             3   4.09403 eV
                                19                   22               0.984204
                                21                   23              -0.088523
                                18                   22               0.073654
                                19                   23              -0.066927
                                20                   22               0.061647
             4   4.75460 eV
                                20                   22               0.795028
                                20                   23              -0.396561
                                18                   22              -0.320785
                                18                   23              -0.195816
                                19                   23              -0.109430
                                21                   25               0.071918
                                15                   22              -0.069267
                                21                   30              -0.059509
                                17                   22               0.059324
                                19                   22              -0.058777
             5   5.38857 eV
                                20                   23              -0.726935
                                20                   22              -0.478609
                                18                   22              -0.409755
                                19                   23              -0.089080
                                21                   30               0.076734
                                21                   23               0.070716
                                15                   22               0.067743
                                21                   24               0.066867
             6   5.60711 eV
                                19                   23              -0.954386
                                18                   23               0.173817
                                21                   24               0.117119
                                20                   23               0.111664
                                21                   26              -0.070517
                                18                   22               0.068703
                                21                   27              -0.066896
                                21                   25               0.064862
                                19                   22              -0.063622
             7   6.32005 eV
                                21                   24              -0.708377
                                18                   22              -0.426770
                                21                   25              -0.394682
                                20                   23               0.198667
                                21                   26               0.173913
                                19                   23              -0.158394
                                21                   27               0.157879
                                16                   22              -0.105252
                                17                   22              -0.073040
                                19                   22               0.057549
             8   6.75209 eV
                                21                   24              -0.660596
                                21                   25               0.516349
                                18                   22               0.394276
                                20                   23              -0.241696
                                21                   27              -0.176705
                                16                   22               0.071120
             9   7.01972 eV
                                21                   25              -0.693400
                                18                   22               0.456584
                                20                   23              -0.295697
                                17                   22               0.232980
                                21                   26               0.174963
                                21                   27              -0.137973
                                17                   23              -0.112420
                                20                   24              -0.111818
                                18                   23              -0.096228
                                19                   24              -0.084540
                                20                   25               0.083447
                                15                   22              -0.081669
                                20                   30              -0.073034
                                19                   23              -0.070706
                                21                   23               0.062419
                                21                   30               0.059948
                                16                   22               0.055737
 -------------------------------------------------------------------------------
 
 -------------------------------------------------------------------------------
 -                            Natural Orbital analysis                         -
 -------------------------------------------------------------------------------
   STATE NR.      1             2.01478 eV
     Particle-Hole state: 1   Spin:1     Eigenvalue: 0.99678   Sum Eigv: 0.99678
   STATE NR.      2             3.53942 eV
     Particle-Hole state: 1   Spin:1     Eigenvalue: 0.97528   Sum Eigv: 0.97528
   STATE NR.      3             4.09403 eV
     Particle-Hole state: 1   Spin:1     Eigenvalue: 0.98607   Sum Eigv: 0.98607
   STATE NR.      4             4.75460 eV
     Particle-Hole state: 1   Spin:1     Eigenvalue: 0.84794   Sum Eigv: 0.84794
     Particle-Hole state: 2   Spin:1     Eigenvalue: 0.11655   Sum Eigv: 0.96449
     Particle-Hole state: 3   Spin:1     Eigenvalue: 0.02139   Sum Eigv: 0.98589
   STATE NR.      5             5.38857 eV
     Particle-Hole state: 1   Spin:1     Eigenvalue: 0.81849   Sum Eigv: 0.81849
     Particle-Hole state: 2   Spin:1     Eigenvalue: 0.13610   Sum Eigv: 0.95459
[...]
 # MPI messages exchanged                  154368
 MPI messages size (bytes):
  total size                         1.184498E+09
  min size                           0.000000E+00
  max size                          31.744000E+03
  average size                       7.673208E+03
 MPI breakdown and total messages size (bytes):
             size <=      128               86064                        0
       128 < size <=     8192               12510                 85892688
      8192 < size <=    32768               55794               1098605088
     32768 < size <=   131072                   0                        0
    131072 < size <=  4194304                   0                        0
   4194304 < size <= 16777216                   0                        0
  16777216 < size                               0                        0
 -------------------------------------------------------------------------------
 -                                                                             -
 -                      DBCSR MESSAGE PASSING PERFORMANCE                      -
 -                                                                             -
 -------------------------------------------------------------------------------
 ROUTINE             CALLS      AVE VOLUME [Bytes]
 MP_Bcast               28                     12.
 MP_Allreduce         6888                      8.
 MP_Alltoall         27043                   2766.
 MP_ISend            25724                   3606.
 MP_IRecv            25724                   3321.
 -------------------------------------------------------------------------------

 -------------------------------------------------------------------------------
 -                                                                             -
 -                                DBM STATISTICS                               -
 -                                                                             -
 -------------------------------------------------------------------------------
    M  x    N  x    K                                          COUNT     PERCENT
 -------------------------------------------------------------------------------

 -------------------------------------------------------------------------------
 -                                                                             -
 -                                GRID STATISTICS                              -
 -                                                                             -
 -------------------------------------------------------------------------------
 LP    KERNEL             BACKEND                              COUNT     PERCENT
 1     collocate ortho    CPU                                 268388      15.75%
 2     collocate ortho    CPU                                 218924      12.85%
 1     integrate ortho    CPU                                 212776      12.49%
 0     collocate ortho    CPU                                 186177      10.93%
 2     integrate ortho    CPU                                 177632      10.42%
 3     collocate ortho    CPU                                 147476       8.65%
 0     integrate ortho    CPU                                 143088       8.40%
 3     integrate ortho    CPU                                 120992       7.10%
 4     collocate ortho    CPU                                  63204       3.71%
 4     integrate ortho    CPU                                  53728       3.15%
 4     collocate general  CPU                                  22176       1.30%
 5     collocate ortho    CPU                                  19236       1.13%
 5     integrate ortho    CPU                                  16992       1.00%
 4     integrate general  CPU                                  16896       0.99%
 2     collocate general  CPU                                  14784       0.87%
 2     integrate general  CPU                                  11264       0.66%
 6     collocate ortho    CPU                                   4809       0.28%
 6     integrate ortho    CPU                                   4368       0.26%
 5     integrate general  CPU                                    384       0.02%
 3     integrate general  CPU                                    256       0.02%
 7     integrate ortho    CPU                                    168       0.01%
 0     collocate general  CPU                                    160       0.01%
 0     integrate general  CPU                                    160       0.01%
 -------------------------------------------------------------------------------

 MEMORY| Estimated peak process memory [MiB]                                1281

 -------------------------------------------------------------------------------
 ----                             MULTIGRID INFO                            ----
 -------------------------------------------------------------------------------
 count for grid        1:         109549          cutoff [a.u.]          200.00
 count for grid        2:          22508          cutoff [a.u.]           66.67
 count for grid        3:           8627          cutoff [a.u.]           22.22
 count for grid        4:           1858          cutoff [a.u.]            7.41
 total gridlevel count  :         142542

 -------------------------------------------------------------------------------
 -                                                                             -
 -                         MESSAGE PASSING PERFORMANCE                         -
 -                                                                             -
 -------------------------------------------------------------------------------

 ROUTINE             CALLS      AVE VOLUME [Bytes]
 MP_Group                5
 MP_Bcast             5195                 906029.
 MP_Allreduce        16209                 140839.
 MP_Sync              1515
 MP_Alltoall          4520               15001914.
 MP_SendRecv         10365                 234072.
 MP_ISendRecv        17085                 125834.
 MP_Wait             36257
 MP_comm_split          52
 MP_ISend            16527                 822548.
 MP_IRecv            16696                 813849.
 -------------------------------------------------------------------------------


 -------------------------------------------------------------------------------
 -                                                                             -
 -                           R E F E R E N C E S                               -
 -                                                                             -
 -------------------------------------------------------------------------------
 
 CP2K version 2024.1 (Development Version), the CP2K developers group (2024).
 CP2K is freely available from https://www.cp2k.org/ .

 Kuehne,Thomas D.; Iannuzzi,Marcella; Del Ben,Mauro;
 Rybkin,Vladimir V.; Seewald,Patrick; Stein,Frederick; Laino,Teodoro;
 Khaliullin,Rustam Z.; Schuett,Ole; Schiffmann,Florian; Golze,Dorothea;
 Wilhelm,Jan; Chulkov,Sergey; Bani-Hashemian,Mohammad Hossein;
 Weber,Valery; Borstnik,Urban; Taillefumier,Mathieu;
 Jakobovits,Alice Shoshana; Lazzaro,Alfio; Pabst,Hans; Mueller,Tiziano;
 Schade,Robert; Guidon,Manuel; Andermatt,Samuel; Holmberg,Nico;
 Schenter,Gregory K.; Hehn,Anna; Bussy,Augustin; Belleflamme,Fabian;
 Tabacchi,Gloria; Gloess,Andreas; Lass,Michael; Bethune,Iain;
 Mundy,Christopher J.; Plessl,Christian; Watkins,Matt;
 VandeVondele,Joost; Krack,Matthias; Hutter,Juerg. 
 The Journal of Chemical Physics, 152 (19), (2020). 
 CP2K: An electronic structure and molecular dynamics software package -
 Quickstep: Efficient and accurate electronic structure calculations.
 https://doi.org/10.1063/5.0007045

 Goerigk, Lars; Hansen, Andreas; Bauer, Christoph; Ehrlich, Stephan;
 Najibi, Asim; Grimme, Stefan. , 19 (48), (2017). 
 A look at the density functional theory zoo with the advanced GMTKN55 database
 for general main group thermochemistry, kinetics and noncovalent interactions.
 https://doi.org/10.1039/C7CP04913G

 Schuett, Ole; Messmer, Peter; Hutter, Juerg; VandeVondele, Joost. 
 Electronic Structure Calculations on Graphics Processing Units, John
 Wiley & Sons, Ltd, 173-190 (2016). 
 GPU-Accelerated Sparse Matrix-Matrix Multiplication for
 Linear Scaling Density Functional Theory.
 https://doi.org/10.1002/9781118670712.ch8

 Heinecke, A; Henry, G; Hutchinson, M; Pabst, H. 
 Proceedings of Intl. Supercomputing Conference, 981-991 (2016). 
 LIBXSMM: Accelerating Small Matrix Multiplications
 by Runtime Code Generation.
 https://doi.org/10.1109/SC.2016.83

 Borstnik, U; VandeVondele, J; Weber, V; Hutter, J. 
 PARALLEL COMPUTING, 40 (5-6), 47-58 (2014). 
 Sparse matrix multiplication: The distributed block-compressed sparse
 row library.
 https://doi.org/10.1016/j.parco.2014.03.012

 Hutter, J; Iannuzzi, M; Schiffmann, F; VandeVondele, J. 
 WIREs Comput Mol Sci., 4 (1), 15-25 (2014). 
 CP2K: atomistic simulations of condensed matter systems.
 https://doi.org/10.1002/wcms.1159

 Grimme, S; Ehrlich, S; Goerigk, L. 
 JOURNAL OF COMPUTATIONAL CHEMISTRY, 32, 1456 (2011). 
 Effect of the damping function in dispersion corrected density functional theory.
 https://doi.org/10.1002/jcc.21759

 Grimme, S; Antony, J; Ehrlich, S; Krieg, H. 
 JOURNAL OF CHEMICAL PHYSICS, 132 (15), 154104 (2010). 
 A consistent and accurate ab initio parametrization of density
 functional dispersion correction (DFT-D) for the 94 elements H-Pu.
 https://doi.org/10.1063/1.3382344

 Guidon, M; Hutter, J; VandeVondele, J. 
 JOURNAL OF CHEMICAL THEORY AND COMPUTATION, 5 (11), 3010-3021 (2009). 
 Robust Periodic Hartree-Fock Exchange for Large-Scale Simulations Using
 Gaussian Basis Sets.
 https://doi.org/10.1021/ct900494g

 Guidon, M; Schiffmann, F; Hutter, J; VandeVondele, J. 
 JOURNAL OF CHEMICAL PHYSICS, 128 (21), 214104 (2008). 
 Ab initio molecular dynamics using hybrid density functionals.
 https://doi.org/10.1063/1.2931945

 VandeVondele, J; Hutter, J. 
 JOURNAL OF CHEMICAL PHYSICS, 127 (11), 114105 (2007). 
 Gaussian basis sets for accurate calculations on molecular systems in
 gas and condensed phases.
 https://doi.org/10.1063/1.2770708

 Frigo, M; Johnson, SG. 
 PROCEEDINGS OF THE IEEE, 93 (2), 216-231 (2005). 
 The design and implementation of FFTW3.
 https://doi.org/10.1109/JPROC.2004.840301

 Iannuzzi, M; Chassaing, T; Wallman, T; Hutter, J. 
 CHIMIA, 59 (7-8), 499-503 (2005). 
 Ground and excited state density functional calculations with the
 Gaussian and augmented-plane-wave method.
 https://doi.org/10.2533/000942905777676164

 VandeVondele, J; Hutter, J. 
 JOURNAL OF CHEMICAL PHYSICS, 118 (10), 4365-4369 (2003). 
 An efficient orbital transformation method for electronic structure
 calculations.
 https://doi.org/10.1063/1.1543154

 Martin,Richard L.. 
 The Journal of Chemical Physics, 118 (11), 4775-4777 (2003). 
 Natural transition orbitals.
 https://doi.org/10.1063/1.1558471

 Lippert, G; Hutter, J; Parrinello, M. 
 THEORETICAL CHEMISTRY ACCOUNTS, 103 (2), 124-140 (1999). 
 The Gaussian and augmented-plane-wave density functional method for ab
 initio molecular dynamics simulations.
 https://doi.org/10.1007/s002140050523

 Krack, M; Parrinello, M. 
 PHYSICAL CHEMISTRY CHEMICAL PHYSICS, 2 (10), 2105-2112 (2000). 
 All-electron ab-initio molecular dynamics.
 https://doi.org/10.1039/b001167n

 Martyna, GJ; Tuckerman, ME. 
 JOURNAL OF CHEMICAL PHYSICS, 110 (6), 2810-2821 (1999). 
 A reciprocal space based method for treating long range interactions in
 ab initio and force-field-based calculations in clusters.
 https://doi.org/10.1063/1.477923

 BECKE, AD. PHYSICAL REVIEW A, 38 (6), 3098-3100 (1988). 
 DENSITY-FUNCTIONAL EXCHANGE-ENERGY APPROXIMATION WITH CORRECT
 ASYMPTOTIC-BEHAVIOR.
 https://doi.org/10.1103/PhysRevA.38.3098

 LEE, CT; YANG, WT; PARR, RG. 
 PHYSICAL REVIEW B, 37 (2), 785-789 (1988). 
 DEVELOPMENT OF THE COLLE-SALVETTI CORRELATION-ENERGY FORMULA INTO A
 FUNCTIONAL OF THE ELECTRON-DENSITY.
 https://doi.org/10.1103/PhysRevB.37.785

 VOSKO, SH; WILK, L; NUSAIR, M. 
 CANADIAN JOURNAL OF PHYSICS, 58 (8), 1200-1211 (1980). 
 ACCURATE SPIN-DEPENDENT ELECTRON LIQUID CORRELATION ENERGIES FOR LOCAL
 SPIN-DENSITY CALCULATIONS - A CRITICAL ANALYSIS.
 https://doi.org/10.1139/p80-159


 -------------------------------------------------------------------------------
 -                                                                             -
 -                                T I M I N G                                  -
 -                                                                             -
 -------------------------------------------------------------------------------
 SUBROUTINE                       CALLS  ASD         SELF TIME        TOTAL TIME
                                MAXIMUM       AVERAGE  MAXIMUM  AVERAGE  MAXIMUM
 CP2K                                 1  1.0    0.012    0.016  196.512  196.512
 qs_forces                            1  2.0    0.001    0.001  195.955  195.955
 qs_energies                          1  3.0    0.000    0.000  125.773  125.773
 qs_energies_properties               1  4.0    0.000    0.000  109.993  109.993
 tddfpt                               1  5.0    0.000    0.000  109.993  109.993
 tddfpt_energies                      1  6.0    0.000    0.000   86.277   86.277
 tddfpt_davidson_solver               2  7.0    0.001    0.002   85.789   85.789
 tddfpt_compute_Aop_evects           12  8.0    0.000    0.000   85.548   85.548
 excited_state_energy                 2  3.5    0.001    0.001   61.272   61.272
 fft_wrap_pw1pw2                   4087 12.1    0.026    0.030   56.429   59.255
 fft_wrap_pw1pw2_200               2847 13.4    2.094    2.179   54.870   57.739
 fhxc_kernel                         12  9.0    0.003    0.003   54.305   54.305
 response_equation                    1  4.0    0.000    0.000   46.899   46.899
 linres_solver                        1  5.0    0.001    0.003   46.877   46.877
 apply_op                            49  6.0    0.001    0.001   46.826   46.826
 fft3d_ps                          4087 14.1   26.187   28.184   42.176   44.975
 integrate_four_center              287 10.6    0.046    0.049   44.292   44.301
 integrate_four_center_main         287 11.6    0.018    0.023   40.105   41.882
 integrate_four_center_bin        27265 12.6   40.087   41.866   40.087   41.866
 derivatives_four_center              4  8.5    0.002    0.003   33.219   33.875
 derivatives_four_center_main         4  9.5    0.000    0.000   33.161   33.816
 xc_pw_derive                      1473 12.3    0.009    0.010   31.734   33.060
 derivatives_four_center_bin        416 10.5   31.551   33.045   31.551   33.045
 tddfpt_apply_hfx                    12  9.0    0.001    0.001   31.173   31.173
 tddft_hfx_matrix                   216 10.0    0.004    0.004   30.865   30.865
 apply_op_2_dft                      48  7.0    0.002    0.003   27.750   27.821
 tddfpt_forces_main                   1  6.0    0.000    0.000   23.663   23.664
 prepare_gapw_den                   235  8.7    0.004    0.005   22.903   22.988
 rebuild_ks_matrix                   19  6.8    0.000    0.000   22.937   22.937
 qs_ks_build_kohn_sham_matrix        19  7.8    0.002    0.002   22.937   22.937
 tddfpt_forces                        1  7.0    0.000    0.000   22.759   22.760
 tddfpt_force_direct                  1  8.0    0.000    0.000   22.356   22.357
 tddfpt_kernel_force                  1  9.0    0.000    0.000   22.349   22.349
 fhxc_force                           1 10.0    0.001    0.001   22.349   22.349
 xc_pw_divergence                   220 12.2    0.004    0.005   18.806   20.146
 tddfpt_apply_xc_analytic           108 10.0    0.716    0.780   18.214   18.309
 qs_rho_update_rho_low              224  8.6    0.002    0.002   17.128   17.128
 calculate_rho_elec                 229  9.5    0.177    0.186   17.112   17.118
 qs_fxc_analytic                     49  8.0    0.001    0.002   15.889   16.018
 scf_env_do_scf                       1  4.0    0.000    0.000   15.638   15.638
 xc_calc_2nd_deriv_analytical       822 11.1    1.272    1.428   14.761   15.009
 response_force                       1  4.0    0.003    0.004   14.372   14.372
 xc_rho_set_and_dset_create         113 12.0    1.131    1.263   12.102   14.177
 density_rs2pw                      229 10.5    0.007    0.007   13.582   14.156
 hfx_ks_matrix                       19  8.8    0.001    0.001   14.137   14.137
 qs_ks_update_qs_env                 20  6.0    0.000    0.000   14.064   14.064
 mp_alltoall_z22v                  4087 16.1    9.629   13.019    9.629   13.019
 integrate_v_rspace                 184  9.3    0.003    0.004   12.433   13.007
 calculate_rho0_atom                693  9.8   11.827   12.767   11.827   12.767
 qs_vxc_create                       62 11.7    0.001    0.001   12.004   12.009
 xc_vxc_pw_create                    62 12.7    0.107    0.114   12.003   12.008
 scf_env_do_scf_inner_loop           18  5.0    0.000    0.001   11.798   11.798
 yz_to_x                           2092 15.2    2.875    3.175    8.732   11.486
 xc_calc_2nd_deriv                   50  8.9    0.334    0.371   10.120   11.341
 tddfpt_apply_coulomb               108 10.0    0.001    0.001    9.060   10.025
 x_to_yz                           1995 15.0    3.438    3.925    7.210    9.173
 potential_pw2rs                    184 10.3    0.011    0.012    8.496    9.070
 qs_ks_update_qs_env_forces           1  3.0    0.000    0.000    8.874    8.874
 qs_fgxc_gdiff                        1 11.0    0.000    0.000    8.269    8.270
 qs_fxc_fdiff                         7 12.0    0.000    0.000    8.249    8.250
 put_rho0_on_grid                   231  9.8    0.205    0.236    7.423    7.534
 xc_prep_2nd_deriv                   51  8.9    0.000    0.000    6.201    7.248
 transfer_rs2pw                    1148 11.4    0.008    0.009    6.422    6.987
 apply_hfx                           48  7.0    0.001    0.001    6.945    6.952
 hfx_matrix                          48  8.0    0.001    0.001    6.942    6.949
 pw_gather_p                       2092 14.2    6.332    6.711    6.332    6.711
 transfer_pw2rs                     917 11.3    0.005    0.005    5.997    6.031
 transfer_rs2pw_200                 461 12.1    2.633    2.712    5.251    5.884
 integrate_vhg0_rspace              180  9.9    1.050    1.145    5.578    5.586
 pw_poisson_solve                   181  9.9    0.002    0.003    4.146    5.112
 mp_sum_d                          2383  9.2    3.138    4.805    3.138    4.805
 transfer_pw2rs_200                 365 12.1    2.343    2.377    4.683    4.749
 xc_functional_eval                3444 11.9    0.003    0.006    2.599    4.666
 mp_waitany                       16520 13.1    3.823    4.523    3.823    4.523
 mp_sync                           1515 12.3    2.278    4.428    2.278    4.428
 grid_collocate_task_list           229 10.5    2.996    4.196    2.996    4.196
 calculate_rho_atom                 705  9.7    2.424    4.082    2.424    4.083
 -------------------------------------------------------------------------------

 The number of warnings for this run is : 0
 
 -------------------------------------------------------------------------------
  **** **** ******  **  PROGRAM ENDED AT                 2025-01-06 23:37:30.335
 ***** ** ***  *** **   PROGRAM RAN ON                               nesh-srp181
 **    ****   ******    PROGRAM RAN BY                                  suphc356
 ***** **    ** ** **   PROGRAM PROCESS ID                               3794498
  **** **  *******  **  PROGRAM STOPPED IN /gxfs_work/cau/suphc356/NEWTONX_proje
                                           ct/Pyrazin_molecule/CP2K_GAPW_B3LYP_d
                                           ef2_TZVP/MOLDYN_BA_again/TRAJECTORIES
                                           /TRAJ115/TEMP
