 DBCSR| CPU Multiplication driver                                           XSMM (U)
 DBCSR| Multrec recursion limit                                              512 (U)
 DBCSR| Multiplication stack size                                           1000 (D)
 DBCSR| Maximum elements for images                                    UNLIMITED (U)
 DBCSR| Multiplicative factor virtual images                                   1 (U)
 DBCSR| Use multiplication densification                                       T (D)
 DBCSR| Multiplication size stacks                                             3 (U)
 DBCSR| Use memory pool for CPU allocation                                     F (U)
 DBCSR| Number of 3D layers                                               SINGLE (U)
 DBCSR| Use MPI memory allocation                                              F (U)
 DBCSR| Use RMA algorithm                                                      F (U)
 DBCSR| Use Communication thread                                               T (U)
 DBCSR| Communication thread load                                             87 (D)
 DBCSR| MPI: My process id                                                     0
 DBCSR| MPI: Number of processes                                              16
 DBCSR| OMP: Current number of threads                                         1
 DBCSR| OMP: Max number of threads                                             1
 DBCSR| Split modifier for TAS multiplication algorithm                  1.0E+00 (U)


  **** **** ******  **  PROGRAM STARTED AT               2025-01-09 09:40:35.811
 ***** ** ***  *** **   PROGRAM STARTED ON                           nesh-srp240
 **    ****   ******    PROGRAM STARTED BY                              suphc356
 ***** **    ** ** **   PROGRAM PROCESS ID                               3806219
  **** **  *******  **  PROGRAM STARTED IN /gxfs_work/cau/suphc356/NEWTONX_proje
                                           ct/Pyrazin_molecule/CP2K_GAPW_B3LYP_d
                                           ef2_TZVP/MOLDYN_BA_again/TRAJECTORIES
                                           /TRAJ206/TEMP

 CP2K| version string:                 CP2K version 2024.1 (Development Version)
 CP2K| source code revision number:                                  git:990486a
 CP2K| cp2kflags: omp libint fftw3 libxc libgrpp parallel mpi_f08 scalapack cosm
 CP2K|            a xsmm spglib mkl
 CP2K| is freely available from                            https://www.cp2k.org/
 CP2K| Program compiled at                          Mon Mar 11 08:48:45 CET 2024
 CP2K| Program compiled on                                           nesh-login2
 CP2K| Program compiled for                                                local
 CP2K| Data directory path                 /gxfs_work/cau/suphc356/cp2k_gcc/data
 CP2K| Input file name                                                  cp2k.inp

 GLOBAL| Force Environment number                                              1
 GLOBAL| Basis set file name                                     EMSL_BASIS_SETS
 GLOBAL| Potential file name                                      ALL_POTENTIALS
 GLOBAL| MM Potential file name                                     MM_POTENTIAL
 GLOBAL| Coordinate file name                                      __STD_INPUT__
 GLOBAL| Method name                                                        CP2K
 GLOBAL| Project name                                               testsuite_ad
 GLOBAL| Run type                                                   ENERGY_FORCE
 GLOBAL| FFT library                                                       FFTW3
 GLOBAL| Diagonalization library                                       ScaLAPACK
 GLOBAL| DGEMM library                                                      BLAS
 GLOBAL| Orthonormality check for eigenvectors                          DISABLED
 GLOBAL| Matrix multiplication library                                     COSMA
 GLOBAL| All-to-all communication in single precision                          F
 GLOBAL| FFTs using library dependent lengths                                  F
 GLOBAL| Grid backend                                                       AUTO
 GLOBAL| Global print level                                               MEDIUM
 GLOBAL| MPI I/O enabled                                                       T
 GLOBAL| Total number of message passing processes                            16
 GLOBAL| Number of threads for this process                                    1
 GLOBAL| This output is from process                                           0
 GLOBAL| Stack size for threads created by OpenMP (OMP_STACKSIZE)           256M
 GLOBAL| CPU model name                              Intel(R) Xeon(R) Gold 6426Y
 GLOBAL| CPUID                                                              1003
 GLOBAL| Compiled for CPUID                                                    0

 *** HINT in environment.F:920 :: The compiler target flags (generic) used ***
 *** to build this binary cannot exploit all extensions of this CPU model  ***
 *** (x86_avx512). Consider compiler target flags as part of FCFLAGS and   ***
 *** CFLAGS (ARCH file).                                                   ***


 MEMORY| system memory details [Kb]
 MEMORY|                        rank 0           min           max       average
 MEMORY| MemTotal            263786136     263786136     263786136     263786136
 MEMORY| MemFree             242700132     242700132     242700132     242700132
 MEMORY| Buffers               1037544       1037544       1037544       1037544
 MEMORY| Cached                 667888        667888        667888        667888
 MEMORY| Slab                  4946336       4946336       4946336       4946336
 MEMORY| SReclaimable           296256        296256        296256        296256
 MEMORY| MemLikelyFree       244701820     244701820     244701820     244701820


 *** Fundamental physical constants (SI units) ***

 *** Literature: B. J. Mohr and B. N. Taylor,
 ***             CODATA recommended values of the fundamental physical
 ***             constants: 2006, Web Version 5.1
 ***             http://physics.nist.gov/constants

 Speed of light in vacuum [m/s]                             2.99792458000000E+08
 Magnetic constant or permeability of vacuum [N/A**2]       1.25663706143592E-06
 Electric constant or permittivity of vacuum [F/m]          8.85418781762039E-12
 Planck constant (h) [J*s]                                  6.62606896000000E-34
 Planck constant (h-bar) [J*s]                              1.05457162825177E-34
 Elementary charge [C]                                      1.60217648700000E-19
 Electron mass [kg]                                         9.10938215000000E-31
 Electron g factor [ ]                                     -2.00231930436220E+00
 Proton mass [kg]                                           1.67262163700000E-27
 Fine-structure constant                                    7.29735253760000E-03
 Rydberg constant [1/m]                                     1.09737315685270E+07
 Avogadro constant [1/mol]                                  6.02214179000000E+23
 Boltzmann constant [J/K]                                   1.38065040000000E-23
 Atomic mass unit [kg]                                      1.66053878200000E-27
 Bohr radius [m]                                            5.29177208590000E-11

 *** Conversion factors ***

 [u] -> [a.u.]                                              1.82288848426455E+03
 [Angstrom] -> [Bohr] = [a.u.]                              1.88972613288564E+00
 [a.u.] = [Bohr] -> [Angstrom]                              5.29177208590000E-01
 [a.u.] -> [s]                                              2.41888432650478E-17
 [a.u.] -> [fs]                                             2.41888432650478E-02
 [a.u.] -> [J]                                              4.35974393937059E-18
 [a.u.] -> [N]                                              8.23872205491840E-08
 [a.u.] -> [K]                                              3.15774647902944E+05
 [a.u.] -> [kJ/mol]                                         2.62549961709828E+03
 [a.u.] -> [kcal/mol]                                       6.27509468713739E+02
 [a.u.] -> [Pa]                                             2.94210107994716E+13
 [a.u.] -> [bar]                                            2.94210107994716E+08
 [a.u.] -> [atm]                                            2.90362800883016E+08
 [a.u.] -> [eV]                                             2.72113838565563E+01
 [a.u.] -> [Hz]                                             6.57968392072181E+15
 [a.u.] -> [1/cm] (wave numbers)                            2.19474631370540E+05
 [a.u./Bohr**2] -> [1/cm]                                   5.14048714338585E+03
 

 CELL_TOP| Volume [angstrom^3]:                                      2744.000000
 CELL_TOP| Vector a [angstrom    14.000     0.000     0.000   |a| =    14.000000
 CELL_TOP| Vector b [angstrom     0.000    14.000     0.000   |b| =    14.000000
 CELL_TOP| Vector c [angstrom     0.000     0.000    14.000   |c| =    14.000000
 CELL_TOP| Angle (b,c), alpha [degree]:                                90.000000
 CELL_TOP| Angle (a,c), beta  [degree]:                                90.000000
 CELL_TOP| Angle (a,b), gamma [degree]:                                90.000000
 CELL_TOP| Numerically orthorhombic:                                         YES
 CELL_TOP| Periodicity                                                      NONE

 CELL| Volume [angstrom^3]:                                          2744.000000
 CELL| Vector a [angstrom]:      14.000     0.000     0.000   |a| =    14.000000
 CELL| Vector b [angstrom]:       0.000    14.000     0.000   |b| =    14.000000
 CELL| Vector c [angstrom]:       0.000     0.000    14.000   |c| =    14.000000
 CELL| Angle (b,c), alpha [degree]:                                    90.000000
 CELL| Angle (a,c), beta  [degree]:                                    90.000000
 CELL| Angle (a,b), gamma [degree]:                                    90.000000
 CELL| Numerically orthorhombic:                                             YES
 CELL| Periodicity                                                          NONE

 CELL_REF| Volume [angstrom^3]:                                      2744.000000
 CELL_REF| Vector a [angstrom    14.000     0.000     0.000   |a| =    14.000000
 CELL_REF| Vector b [angstrom     0.000    14.000     0.000   |b| =    14.000000
 CELL_REF| Vector c [angstrom     0.000     0.000    14.000   |c| =    14.000000
 CELL_REF| Angle (b,c), alpha [degree]:                                90.000000
 CELL_REF| Angle (a,c), beta  [degree]:                                90.000000
 CELL_REF| Angle (a,b), gamma [degree]:                                90.000000
 CELL_REF| Numerically orthorhombic:                                         YES
 CELL_REF| Periodicity                                                      NONE

 *******************************************************************************
 *******************************************************************************
 **                                                                           **
 **     #####                         ##              ##                      **
 **    ##   ##            ##          ##              ##                      **
 **   ##     ##                       ##            ######                    **
 **   ##     ##  ##   ##  ##   #####  ##  ##   ####   ##    #####    #####    **
 **   ##     ##  ##   ##  ##  ##      ## ##   ##      ##   ##   ##  ##   ##   **
 **   ##  ## ##  ##   ##  ##  ##      ####     ###    ##   ######   ######    **
 **    ##  ###   ##   ##  ##  ##      ## ##      ##   ##   ##       ##        **
 **     #######   #####   ##   #####  ##  ##  ####    ##    #####   ##        **
 **           ##                                                    ##        **
 **                                                                           **
 **                                                ... make the atoms dance   **
 **                                                                           **
 **            Copyright (C) by CP2K developers group (2000-2024)             **
 **                      J. Chem. Phys. 152, 194103 (2020)                    **
 **                                                                           **
 *******************************************************************************

 DFT| Spin restricted Kohn-Sham (RKS) calculation                            RKS
 DFT| Multiplicity                                                             1
 DFT| Number of spin states                                                    1
 DFT| Charge                                                                   0
 DFT| Self-interaction correction (SIC)                                       NO
 DFT| Cutoffs: density                                              1.000000E-10
 DFT|          gradient                                             1.000000E-10
 DFT|          tau                                                  1.000000E-10
 DFT|          cutoff_smoothing_range                               0.000000E+00
 DFT| XC density smoothing                                                  NONE
 DFT| XC derivatives                                                          PW

 FUNCTIONAL| BECKE88:
 FUNCTIONAL| A. Becke, Phys. Rev. A 38, 3098 (1988) {LDA version}               
 FUNCTIONAL| LYP:
 FUNCTIONAL| C. Lee, W. Yang, R.G. Parr, Phys. Rev. B, 37, 785 (1988) {LDA versi
 FUNCTIONAL| on}                                                                
 FUNCTIONAL| VWN:
 FUNCTIONAL| S. H. Vosko, L. Wilk and M. Nusair, Can. J. Phys. 58, 1200 (1980) {
 FUNCTIONAL| LDA version}                                                       
 FUNCTIONAL| XALPHA:
 FUNCTIONAL| Dirac/Slater local exchange; parameter=  0.666 {LDA}               

 vdW POTENTIAL|                                                   Pair Potential
 vdW POTENTIAL|          DFT-D3 (Version 3.1)
 vdW POTENTIAL|          Potential Form: S. Grimme et al, JCP 132: 154104 (2010)
 vdW POTENTIAL|          Zero Damping
 vdW POTENTIAL|          Cutoff Radius [Bohr]:                             37.79
 vdW POTENTIAL|          s6 Scaling Factor:                               1.0000
 vdW POTENTIAL|          sr6 Scaling Factor:                              1.2610
 vdW POTENTIAL|          s8 Scaling Factor:                               1.7030
 vdW POTENTIAL|          Cutoff for CN calculation:                   0.1000E-05

 QS| Method:                                                                GAPW
 QS| Density plane wave grid type                        NON-SPHERICAL FULLSPACE
 QS| Number of grid levels:                                                    4
 QS| Density cutoff [a.u.]:                                                200.0
 QS| Multi grid cutoff [a.u.]: 1) grid level                               200.0
 QS|                           2) grid level                                66.7
 QS|                           3) grid level                                22.2
 QS|                           4) grid level                                 7.4
 QS| Grid level progression factor:                                          3.0
 QS| Relative density cutoff [a.u.]:                                        30.0
 QS| Interaction thresholds: eps_pgf_orb:                                1.0E-07
 QS|                         eps_filter_matrix:                          0.0E+00
 QS|                         eps_core_charge:                            1.0E-16
 QS|                         eps_rho_gspace:                             1.0E-14
 QS|                         eps_rho_rspace:                             1.0E-14
 QS|                         eps_gvg_rspace:                             1.0E-07
 QS|                         eps_ppl:                                    1.0E-02
 QS|                         eps_ppnl:                                   1.0E-09
 QS| GAPW|      One center basis extended with primitives (small:s)
 QS| GAPW|                   eps_fit:                                    1.0E-04
 QS| GAPW|                   eps_iso:                                    1.0E-12
 QS| GAPW|                   eps_svd:                                    1.0E-08
 QS| GAPW|                   eps_cpc:                                    1.0E-14
 QS| GAPW|   atom-r-grid: quadrature:                                     GC_LOG
 QS| GAPW|      atom-s-grid:  max l :                                          6
 QS| GAPW|      max_l_rho0 :                                                   4


 ATOMIC KIND INFORMATION

  1. Atomic kind: n                                     Number of atoms:       2

     Orbital Basis Set                                        Ahlrichs-def2-TZVP

       Number of orbital shell sets:                                          11
       Number of orbital shells:                                              11
       Number of primitive Cartesian functions:                               20
       Number of Cartesian basis functions:                                   36
       Number of spherical basis functions:                                   31
       Norm type:                                                              2

       Normalised Cartesian orbitals:

                        Set   Shell   Orbital            Exponent    Coefficient

                          1       1    1s            19730.800647       0.695604
                                                      2957.895874       1.298610
                                                       673.221336       2.219088
                                                       190.682495       3.463661
                                                        62.295442       4.696756
                                                        22.654161       4.952251

                          2       1    1s                8.979148       2.388068
                                                         3.686300       0.733788

                          3       1    1s                0.846601       0.629027

                          4       1    1s                0.336471       0.314863

                          5       1    1s                0.136477       0.160031

                          6       1    1px              49.200381       2.126481
                                                        11.346791       2.327937
                                                         3.427397       2.048573
                                                         1.178553       1.260732
                          6       1    1py              49.200381       2.126481
                                                        11.346791       2.327937
                                                         3.427397       2.048573
                                                         1.178553       1.260732
                          6       1    1pz              49.200381       2.126481
                                                        11.346791       2.327937
                                                         3.427397       2.048573
                                                         1.178553       1.260732

                          7       1    1px               0.416422       0.476823
                          7       1    1py               0.416422       0.476823
                          7       1    1pz               0.416422       0.476823

                          8       1    1px               0.142608       0.124917
                          8       1    1py               0.142608       0.124917
                          8       1    1pz               0.142608       0.124917

                          9       1    1dx2              1.654000       3.970513
                          9       1    1dxy              1.654000       6.877130
                          9       1    1dxz              1.654000       6.877130
                          9       1    1dy2              1.654000       3.970513
                          9       1    1dyz              1.654000       6.877130
                          9       1    1dz2              1.654000       3.970513

                         10       1    1dx2              0.469000       0.437484
                         10       1    1dxy              0.469000       0.757744
                         10       1    1dxz              0.469000       0.757744
                         10       1    1dy2              0.469000       0.437484
                         10       1    1dyz              0.469000       0.757744
                         10       1    1dz2              0.469000       0.437484

                         11       1    1fx3              1.093000       1.798249
                         11       1    1fx2y             1.093000       4.021007
                         11       1    1fx2z             1.093000       4.021007
                         11       1    1fxy2             1.093000       4.021007
                         11       1    1fxyz             1.093000       6.964588
                         11       1    1fxz2             1.093000       4.021007
                         11       1    1fy3              1.093000       1.798249
                         11       1    1fy2z             1.093000       4.021007
                         11       1    1fyz2             1.093000       4.021007
                         11       1    1fz3              1.093000       1.798249

       Atomic covalent radius [Angstrom]:                                  0.750

       Atomic van der Waals radius [Angstrom]:                             1.550

     The atoms of this atomic kind are PAW atoms (GAPW):
       Hard Gaussian function radius:                                      1.400
       Rho0 radius:                                                        1.400
       Maximum GTO radius used for PAW projector construction:            24.566

     GAPW Soft Basis Set                                 Ahlrichs-def2-TZVP_soft

       Number of orbital shell sets:                                          11
       Number of orbital shells:                                              11
       Number of primitive Cartesian functions:                               11
       Number of Cartesian basis functions:                                   36
       Number of spherical basis functions:                                   31
       Norm type:                                                              2

       Normalised Cartesian orbitals:

                        Set   Shell   Orbital            Exponent    Coefficient

                          1       1    1s         

                          2       1    1s                3.686300       0.733788

                          3       1    1s                0.846601       0.629027

                          4       1    1s                0.336471       0.314863

                          5       1    1s                0.136477       0.160031

                          6       1    1px               3.427397       2.048573
                                                         1.178553       1.260732
                          6       1    1py               3.427397       2.048573
                                                         1.178553       1.260732
                          6       1    1pz               3.427397       2.048573
                                                         1.178553       1.260732

                          7       1    1px               0.416422       0.476823
                          7       1    1py               0.416422       0.476823
                          7       1    1pz               0.416422       0.476823

                          8       1    1px               0.142608       0.124917
                          8       1    1py               0.142608       0.124917
                          8       1    1pz               0.142608       0.124917

                          9       1    1dx2              1.654000       3.970513
                          9       1    1dxy              1.654000       6.877130
                          9       1    1dxz              1.654000       6.877130
                          9       1    1dy2              1.654000       3.970513
                          9       1    1dyz              1.654000       6.877130
                          9       1    1dz2              1.654000       3.970513

                         10       1    1dx2              0.469000       0.437484
                         10       1    1dxy              0.469000       0.757744
                         10       1    1dxz              0.469000       0.757744
                         10       1    1dy2              0.469000       0.437484
                         10       1    1dyz              0.469000       0.757744
                         10       1    1dz2              0.469000       0.437484

                         11       1    1fx3              1.093000       1.798249
                         11       1    1fx2y             1.093000       4.021007
                         11       1    1fx2z             1.093000       4.021007
                         11       1    1fxy2             1.093000       4.021007
                         11       1    1fxyz             1.093000       6.964588
                         11       1    1fxz2             1.093000       4.021007
                         11       1    1fy3              1.093000       1.798249
                         11       1    1fy2z             1.093000       4.021007
                         11       1    1fyz2             1.093000       4.021007
                         11       1    1fz3              1.093000       1.798249

     AE Potential information for                                            ALL

       Description:                                       All-electron potential
                                          Krack, Parrinello, PCCP 2, 2105 (2000)

       Gaussian exponent of the core charge distribution:               5.979100
       Electronic configuration (s p d ...):                           4   3   0

  2. Atomic kind: c                                     Number of atoms:       4

     Orbital Basis Set                                        Ahlrichs-def2-TZVP

       Number of orbital shell sets:                                          11
       Number of orbital shells:                                              11
       Number of primitive Cartesian functions:                               20
       Number of Cartesian basis functions:                                   36
       Number of spherical basis functions:                                   31
       Norm type:                                                              2

       Normalised Cartesian orbitals:

                        Set   Shell   Orbital            Exponent    Coefficient

                          1       1    1s            13575.349682       0.543591
                                                      2035.233368       1.014554
                                                       463.225624       1.731573
                                                       131.200196       2.691038
                                                        42.853016       3.604455
                                                        15.584186       3.702556

                          2       1    1s                6.206714       1.838354
                                                         2.576490       0.544758

                          3       1    1s                0.576963       0.471815

                          4       1    1s                0.229728       0.236494

                          5       1    1s                0.095164       0.122114

                          6       1    1px              34.697232       1.359665
                                                         7.958262       1.451259
                                                         2.378083       1.270923
                                                         0.814332       0.802572
                          6       1    1py              34.697232       1.359665
                                                         7.958262       1.451259
                                                         2.378083       1.270923
                                                         0.814332       0.802572
                          6       1    1pz              34.697232       1.359665
                                                         7.958262       1.451259
                                                         2.378083       1.270923
                                                         0.814332       0.802572

                          7       1    1px               0.288875       0.301876
                          7       1    1py               0.288875       0.301876
                          7       1    1pz               0.288875       0.301876

                          8       1    1px               0.100568       0.080727
                          8       1    1py               0.100568       0.080727
                          8       1    1pz               0.100568       0.080727

                          9       1    1dx2              1.097000       1.935401
                          9       1    1dxy              1.097000       3.352214
                          9       1    1dxz              1.097000       3.352214
                          9       1    1dy2              1.097000       1.935401
                          9       1    1dyz              1.097000       3.352214
                          9       1    1dz2              1.097000       1.935401

                         10       1    1dx2              0.318000       0.221644
                         10       1    1dxy              0.318000       0.383899
                         10       1    1dxz              0.318000       0.383899
                         10       1    1dy2              0.318000       0.221644
                         10       1    1dyz              0.318000       0.383899
                         10       1    1dz2              0.318000       0.221644

                         11       1    1fx3              0.761000       0.796288
                         11       1    1fx2y             0.761000       1.780553
                         11       1    1fx2z             0.761000       1.780553
                         11       1    1fxy2             0.761000       1.780553
                         11       1    1fxyz             0.761000       3.084008
                         11       1    1fxz2             0.761000       1.780553
                         11       1    1fy3              0.761000       0.796288
                         11       1    1fy2z             0.761000       1.780553
                         11       1    1fyz2             0.761000       1.780553
                         11       1    1fz3              0.761000       0.796288

       Atomic covalent radius [Angstrom]:                                  0.770

       Atomic van der Waals radius [Angstrom]:                             1.700

     The atoms of this atomic kind are PAW atoms (GAPW):
       Hard Gaussian function radius:                                      1.520
       Rho0 radius:                                                        1.520
       Maximum GTO radius used for PAW projector construction:            24.566

     GAPW Soft Basis Set                                 Ahlrichs-def2-TZVP_soft

       Number of orbital shell sets:                                          11
       Number of orbital shells:                                              11
       Number of primitive Cartesian functions:                               11
       Number of Cartesian basis functions:                                   36
       Number of spherical basis functions:                                   31
       Norm type:                                                              2

       Normalised Cartesian orbitals:

                        Set   Shell   Orbital            Exponent    Coefficient

                          1       1    1s         

                          2       1    1s                2.576490       0.544758

                          3       1    1s                0.576963       0.471815

                          4       1    1s                0.229728       0.236494

                          5       1    1s                0.095164       0.122114

                          6       1    1px               2.378083       1.270923
                                                         0.814332       0.802572
                          6       1    1py               2.378083       1.270923
                                                         0.814332       0.802572
                          6       1    1pz               2.378083       1.270923
                                                         0.814332       0.802572

                          7       1    1px               0.288875       0.301876
                          7       1    1py               0.288875       0.301876
                          7       1    1pz               0.288875       0.301876

                          8       1    1px               0.100568       0.080727
                          8       1    1py               0.100568       0.080727
                          8       1    1pz               0.100568       0.080727

                          9       1    1dx2              1.097000       1.935401
                          9       1    1dxy              1.097000       3.352214
                          9       1    1dxz              1.097000       3.352214
                          9       1    1dy2              1.097000       1.935401
                          9       1    1dyz              1.097000       3.352214
                          9       1    1dz2              1.097000       1.935401

                         10       1    1dx2              0.318000       0.221644
                         10       1    1dxy              0.318000       0.383899
                         10       1    1dxz              0.318000       0.383899
                         10       1    1dy2              0.318000       0.221644
                         10       1    1dyz              0.318000       0.383899
                         10       1    1dz2              0.318000       0.221644

                         11       1    1fx3              0.761000       0.796288
                         11       1    1fx2y             0.761000       1.780553
                         11       1    1fx2z             0.761000       1.780553
                         11       1    1fxy2             0.761000       1.780553
                         11       1    1fxyz             0.761000       3.084008
                         11       1    1fxz2             0.761000       1.780553
                         11       1    1fy3              0.761000       0.796288
                         11       1    1fy2z             0.761000       1.780553
                         11       1    1fyz2             0.761000       1.780553
                         11       1    1fz3              0.761000       0.796288

     AE Potential information for                                            ALL

       Description:                                       All-electron potential
                                          Krack, Parrinello, PCCP 2, 2105 (2000)

       Gaussian exponent of the core charge distribution:               4.109048
       Electronic configuration (s p d ...):                           4   2   0

  3. Atomic kind: h                                     Number of atoms:       4

     Orbital Basis Set                                        Ahlrichs-def2-TZVP

       Number of orbital shell sets:                                           4
       Number of orbital shells:                                               4
       Number of primitive Cartesian functions:                                6
       Number of Cartesian basis functions:                                    6
       Number of spherical basis functions:                                    6
       Norm type:                                                              2

       Normalised Cartesian orbitals:

                        Set   Shell   Orbital            Exponent    Coefficient

                          1       1    1s               34.061341       0.255630
                                                         5.123575       0.461360
                                                         1.164663       0.681121

                          2       1    1s                0.327230       0.308355

                          3       1    1s                0.103072       0.129648

                          4       1    1px               0.800000       1.078456
                          4       1    1py               0.800000       1.078456
                          4       1    1pz               0.800000       1.078456

       Atomic covalent radius [Angstrom]:                                  0.320

       Atomic van der Waals radius [Angstrom]:                             1.090

     The atoms of this atomic kind are PAW atoms (GAPW):
       Hard Gaussian function radius:                                      1.000
       Rho0 radius:                                                        1.000
       Maximum GTO radius used for PAW projector construction:            24.566

     GAPW Soft Basis Set                                 Ahlrichs-def2-TZVP_soft

       Number of orbital shell sets:                                           4
       Number of orbital shells:                                               4
       Number of primitive Cartesian functions:                                5
       Number of Cartesian basis functions:                                    6
       Number of spherical basis functions:                                    6
       Norm type:                                                              2

       Normalised Cartesian orbitals:

                        Set   Shell   Orbital            Exponent    Coefficient

                          1       1    1s                5.123575       0.461360
                                                         1.164663       0.681121

                          2       1    1s                0.327230       0.308355

                          3       1    1s                0.103072       0.129648

                          4       1    1px               0.800000       1.078456
                          4       1    1py               0.800000       1.078456
                          4       1    1pz               0.800000       1.078456

     AE Potential information for                                            ALL

       Description:                                       All-electron potential
                                          Krack, Parrinello, PCCP 2, 2105 (2000)

       Gaussian exponent of the core charge distribution:              12.500000
       Electronic configuration (s p d ...):                           1   0   0


 MOLECULE KIND INFORMATION


 All atoms are their own molecule, skipping detailed information


 TOTAL NUMBERS AND MAXIMUM NUMBERS

  Total number of            - Atomic kinds:                                   3
                             - Atoms:                                         10
                             - Shell sets:                                    82
                             - Shells:                                        82
                             - Primitive Cartesian functions:                144
                             - Cartesian basis functions:                    240
                             - Spherical basis functions:                    210

  Maximum angular momentum of the orbital basis functions:                     3


 MODULE QUICKSTEP: ATOMIC COORDINATES IN ANGSTROM

   Atom Kind Element         X             Y             Z       Z(eff)     Mass
      1    1 n     7      7.112424      8.087355      7.426027   7.0000  14.0067
      2    1 n     7      7.023526      5.884760      6.343781   7.0000  14.0067
      3    2 c     6      6.983769      7.138066      8.401521   6.0000  12.0107
      4    2 c     6      6.900705      5.806911      7.586837   6.0000  12.0107
      5    2 c     6      7.176707      8.065706      6.114887   6.0000  12.0107
      6    2 c     6      7.253642      6.943510      5.463733   6.0000  12.0107
      7    3 h     1      7.238539      7.373846      9.517564   1.0000   1.0079
      8    3 h     1      6.999382      4.773922      7.957899   1.0000   1.0079
      9    3 h     1      7.064918      9.226078      5.501001   1.0000   1.0079
     10    3 h     1      6.746358      6.839025      4.482436   1.0000   1.0079



 SCF PARAMETERS         Density guess:                                   RESTART
                        --------------------------------------------------------
                        max_scf:                                              50
                        max_scf_history:                                       0
                        max_diis:                                              4
                        --------------------------------------------------------
                        eps_scf:                                        1.00E-08
                        eps_scf_history:                                0.00E+00
                        eps_diis:                                       1.00E-01
                        eps_eigval:                                     1.00E-05
                        --------------------------------------------------------
                        level_shift [a.u.]:                             0.000000
                        --------------------------------------------------------
                        Outer loop SCF in use 
                        No variables optimised in outer loop
                        eps_scf                                         1.00E-08
                        max_scf                                              900
                        No outer loop optimization
                        step_size                                       5.00E-01

 PW_GRID| Information for grid number                                          1
 PW_GRID| Grid distributed over                                    16 processors
 PW_GRID| Real space group dimensions                                    16    1
 PW_GRID| the grid is blocked:                                                NO
 PW_GRID| Cutoff [a.u.]                                                    400.0
 PW_GRID| spherical cutoff:                                                   NO
 PW_GRID|   Bounds   1           -120     119                Points:         240
 PW_GRID|   Bounds   2           -120     119                Points:         240
 PW_GRID|   Bounds   3           -120     119                Points:         240
 PW_GRID| Volume element (a.u.^3)  0.1340E-02     Volume (a.u.^3)     18517.4301
 PW_GRID| Grid span                                                    FULLSPACE
 PW_GRID|   Distribution                         Average         Max         Min
 PW_GRID|   G-Vectors                           864000.0      864000      864000
 PW_GRID|   G-Rays                                3600.0        3600        3600
 PW_GRID|   Real Space Points                   864000.0      864000      864000

 PW_GRID| Information for grid number                                          2
 PW_GRID| Number of the reference grid                                         1
 PW_GRID| Grid distributed over                                    16 processors
 PW_GRID| Real space group dimensions                                    16    1
 PW_GRID| the grid is blocked:                                                NO
 PW_GRID| Cutoff [a.u.]                                                    200.0
 PW_GRID| spherical cutoff:                                                   NO
 PW_GRID|   Bounds   1            -90      89                Points:         180
 PW_GRID|   Bounds   2            -90      89                Points:         180
 PW_GRID|   Bounds   3            -90      89                Points:         180
 PW_GRID| Volume element (a.u.^3)  0.3175E-02     Volume (a.u.^3)     18517.4301
 PW_GRID| Grid span                                                    FULLSPACE
 PW_GRID|   Distribution                         Average         Max         Min
 PW_GRID|   G-Vectors                           364500.0      364680      364320
 PW_GRID|   G-Rays                                2025.0        2026        2024
 PW_GRID|   Real Space Points                   364500.0      388800      356400

 PW_GRID| Information for grid number                                          3
 PW_GRID| Number of the reference grid                                         2
 PW_GRID| Grid distributed over                                    16 processors
 PW_GRID| Real space group dimensions                                    16    1
 PW_GRID| the grid is blocked:                                                NO
 PW_GRID| Cutoff [a.u.]                                                     66.7
 PW_GRID| spherical cutoff:                                                   NO
 PW_GRID|   Bounds   1            -50      49                Points:         100
 PW_GRID|   Bounds   2            -50      49                Points:         100
 PW_GRID|   Bounds   3            -50      49                Points:         100
 PW_GRID| Volume element (a.u.^3)  0.1852E-01     Volume (a.u.^3)     18517.4301
 PW_GRID| Grid span                                                    FULLSPACE
 PW_GRID|   Distribution                         Average         Max         Min
 PW_GRID|   G-Vectors                            62500.0       62600       62400
 PW_GRID|   G-Rays                                 625.0         626         624
 PW_GRID|   Real Space Points                    62500.0       70000       60000

 PW_GRID| Information for grid number                                          4
 PW_GRID| Number of the reference grid                                         2
 PW_GRID| Grid distributed over                                    16 processors
 PW_GRID| Real space group dimensions                                    16    1
 PW_GRID| the grid is blocked:                                                NO
 PW_GRID| Cutoff [a.u.]                                                     22.2
 PW_GRID| spherical cutoff:                                                   NO
 PW_GRID|   Bounds   1            -30      29                Points:          60
 PW_GRID|   Bounds   2            -30      29                Points:          60
 PW_GRID|   Bounds   3            -30      29                Points:          60
 PW_GRID| Volume element (a.u.^3)  0.8573E-01     Volume (a.u.^3)     18517.4301
 PW_GRID| Grid span                                                    FULLSPACE
 PW_GRID|   Distribution                         Average         Max         Min
 PW_GRID|   G-Vectors                            13500.0       13560       13440
 PW_GRID|   G-Rays                                 225.0         226         224
 PW_GRID|   Real Space Points                    13500.0       14400       10800

 PW_GRID| Information for grid number                                          5
 PW_GRID| Number of the reference grid                                         2
 PW_GRID| Grid distributed over                                    16 processors
 PW_GRID| Real space group dimensions                                    16    1
 PW_GRID| the grid is blocked:                                                NO
 PW_GRID| Cutoff [a.u.]                                                      7.4
 PW_GRID| spherical cutoff:                                                   NO
 PW_GRID|   Bounds   1            -18      17                Points:          36
 PW_GRID|   Bounds   2            -18      17                Points:          36
 PW_GRID|   Bounds   3            -18      17                Points:          36
 PW_GRID| Volume element (a.u.^3)  0.3969         Volume (a.u.^3)     18517.4301
 PW_GRID| Grid span                                                    FULLSPACE
 PW_GRID|   Distribution                         Average         Max         Min
 PW_GRID|   G-Vectors                             2916.0        2952        2880
 PW_GRID|   G-Rays                                  81.0          82          80
 PW_GRID|   Real Space Points                     2916.0        3888        2592

 POISSON| Solver                                          Martyna-Tuckerman (MT)
 POISSON| MT| Alpha                                                        7.000
 POISSON| MT| Relative cutoff                                                2.0
 POISSON| Periodicity                                                       NONE

 RS_GRID| Information for grid number                                          2
 RS_GRID|   Bounds   1            -90      89                Points:         180
 RS_GRID|   Bounds   2            -90      89                Points:         180
 RS_GRID|   Bounds   3            -90      89                Points:         180
 RS_GRID| Real space distribution over                                  4 groups
 RS_GRID| Real space distribution along direction                              2
 RS_GRID| Border size                                                         31
 RS_GRID| Real space distribution over                                  4 groups
 RS_GRID| Real space distribution along direction                              3
 RS_GRID| Border size                                                         31
 RS_GRID|   Distribution                         Average         Max         Min
 RS_GRID|   Planes                                 107.0         107         107
 RS_GRID|   Distribution                         Average         Max         Min
 RS_GRID|   Planes                                 107.0         107         107

 RS_GRID| Information for grid number                                          3
 RS_GRID|   Bounds   1            -50      49                Points:         100
 RS_GRID|   Bounds   2            -50      49                Points:         100
 RS_GRID|   Bounds   3            -50      49                Points:         100
 RS_GRID| Real space fully replicated
 RS_GRID| Group size                                                           1

 RS_GRID| Information for grid number                                          4
 RS_GRID|   Bounds   1            -30      29                Points:          60
 RS_GRID|   Bounds   2            -30      29                Points:          60
 RS_GRID|   Bounds   3            -30      29                Points:          60
 RS_GRID| Real space fully replicated
 RS_GRID| Group size                                                           1

 RS_GRID| Information for grid number                                          5
 RS_GRID|   Bounds   1            -18      17                Points:          36
 RS_GRID|   Bounds   2            -18      17                Points:          36
 RS_GRID|   Bounds   3            -18      17                Points:          36
 RS_GRID| Real space fully replicated
 RS_GRID| Group size                                                           1

  HFX_INFO| Replica ID:                                                        1
  HFX_INFO| FRACTION:                                               0.2000000000
  HFX_INFO| Interaction Potential:                                       COULOMB
  HFX_INFO| EPS_SCHWARZ:                                                 1.0E-10
  HFX_INFO| EPS_SCHWARZ_FORCES                                           1.0E-08
  HFX_INFO| EPS_STORAGE_SCALING:                                         1.0E+00
  HFX_INFO| NBINS:                                                            64
  HFX_INFO| BLOCK_SIZE:                                                        1
  HFX_INFO| Number of periodic shells considered:                           NONE
  HFX_INFO| Number of periodic cells considered:                            NONE


 Number of electrons:                                                         42
 Number of occupied orbitals:                                                 21
 Number of molecular orbitals:                                                21

 Number of orbital functions:                                                210
 Number of independent orbital functions:                                    210

 Extrapolation method: initial_guess


 SCF WAVEFUNCTION OPTIMIZATION

  ----------------------------------- OT ---------------------------------------
  Minimizer      : DIIS                : direct inversion
                                         in the iterative subspace
                                         using   7 DIIS vectors
                                         safer DIIS on
  Preconditioner : FULL_ALL            : diagonalization, state selective
  Precond_solver : DEFAULT
  stepsize       :    0.15000000                  energy_gap     :    0.08000000
  eps_taylor     :   0.10000E-15                  max_taylor     :             4
  ----------------------------------- OT ---------------------------------------

  Step     Update method      Time    Convergence         Total energy    Change
  ------------------------------------------------------------------------------

  HFX_MEM_INFO| Est. max. program size before HFX [MiB]:                     641
  HFX_MEM_INFO| Number of cart. primitive ERI's calculated:           1714644115
  HFX_MEM_INFO| Number of sph. ERI's calculated:                       315412644
  HFX_MEM_INFO| Number of sph. ERI's stored in-core:                   315412644
  HFX_MEM_INFO| Number of sph. ERI's stored on disk:                           0
  HFX_MEM_INFO| Number of sph. ERI's calculated on the fly:                    0
  HFX_MEM_INFO| Total memory consumption ERI's RAM [MiB]:                    936
  HFX_MEM_INFO| Whereof max-vals [MiB]:                                        5
  HFX_MEM_INFO| Total compression factor ERI's RAM:                         2.57
  HFX_MEM_INFO| Total memory consumption ERI's disk [MiB]:                     0
  HFX_MEM_INFO| Total compression factor ERI's disk:                        0.00
  HFX_MEM_INFO| Size of density/Fock matrix [MiB]:                             0
  HFX_MEM_INFO| Size of buffers [MiB]:                                         0
  HFX_MEM_INFO| Est. max. program size after HFX  [MiB]:                     700

     1 OT DIIS     0.15E+00    3.9     0.01447169      -264.0193516225 -2.64E+02
     2 OT DIIS     0.15E+00    0.7     0.00658170      -264.1166302877 -9.73E-02
     3 OT DIIS     0.15E+00    0.7     0.00408017      -264.1376208501 -2.10E-02
     4 OT DIIS     0.15E+00    0.7     0.00059859      -264.1408301887 -3.21E-03
     5 OT DIIS     0.15E+00    0.7     0.00025089      -264.1409199529 -8.98E-05
     6 OT DIIS     0.15E+00    0.7     0.00007713      -264.1409398245 -1.99E-05
     7 OT DIIS     0.15E+00    0.7     0.00003201      -264.1409427418 -2.92E-06
     8 OT DIIS     0.15E+00    0.7     0.00001345      -264.1409430933 -3.52E-07
     9 OT DIIS     0.15E+00    0.7     0.00000543      -264.1409431555 -6.21E-08
    10 OT DIIS     0.15E+00    0.7     0.00000210      -264.1409431674 -1.20E-08
    11 OT DIIS     0.15E+00    0.7     0.00000088      -264.1409431696 -2.17E-09
    12 OT DIIS     0.15E+00    0.7     0.00000042      -264.1409431699 -3.24E-10
    13 OT DIIS     0.15E+00    0.7     0.00000025      -264.1409431700 -7.00E-11
    14 OT DIIS     0.15E+00    0.7     0.00000008      -264.1409431700 -1.79E-11
    15 OT DIIS     0.15E+00    0.7     0.00000003      -264.1409431700 -7.73E-12
    16 OT DIIS     0.15E+00    0.7     0.00000002      -264.1409431700 -1.14E-12
    17 OT DIIS     0.15E+00    0.7     7.3999E-09      -264.1409431700  1.42E-12

  *** SCF run converged in    17 steps ***


  Electronic density on regular grids:        -30.6469033122       11.3530966878
  Core density on regular grids:               42.0000000000       -0.0000000000
  Hard and soft densities (Lebedev):          -94.0878050607      -82.7347083682
  Total Rho_soft + Rho1_hard - Rho1_soft      -42.0000000048
  Total charge density (r-space):              -0.0000000048
  Total Rho_soft + Rho0_soft (g-space):        -0.0000000303

  Overlap energy of the core charge distribution:               0.00001489394048
  Self energy of the core charge distribution:               -217.69203579805162
  Core Hamiltonian energy:                                    -42.04725500540833
  Hartree energy:                                             109.90324489504187
  Exchange-correlation energy:                                -11.14565230265560
  Hartree-Fock Exchange energy:                                -7.03685876783932
  Dispersion energy:                                           -0.00377157308194

  GAPW| Exc from hard and soft atomic rho1:                   -18.55098928748423
  GAPW| local Eh = 1 center integrals:                        -77.56764022449642

  Total energy:                                              -264.14094317003509

  outer SCF iter =    1 RMS gradient =   0.74E-08 energy =       -264.1409431700
  outer SCF loop converged in   1 iterations or   17 steps


 !-----------------------------------------------------------------------------!
                     Mulliken Population Analysis

 #  Atom  Element  Kind  Atomic population                           Net charge
       1     n        1          7.207069                             -0.207069
       2     n        1          7.163552                             -0.163552
       3     c        2          6.033081                             -0.033081
       4     c        2          6.079160                             -0.079160
       5     c        2          6.005825                             -0.005825
       6     c        2          6.002970                             -0.002970
       7     h        3          0.841715                              0.158285
       8     h        3          0.873817                              0.126183
       9     h        3          0.916902                              0.083098
      10     h        3          0.875908                              0.124092
 # Total charge                             42.000000                  0.000000

 !-----------------------------------------------------------------------------!

 !-----------------------------------------------------------------------------!
                           Hirshfeld Charges

  #Atom  Element  Kind  Ref Charge     Population                    Net charge
      1       n      1       7.000          7.314                        -0.314
      2       n      1       7.000          7.308                        -0.308
      3       c      2       6.000          6.312                        -0.312
      4       c      2       6.000          6.337                        -0.337
      5       c      2       6.000          6.334                        -0.334
      6       c      2       6.000          6.341                        -0.341
      7       h      3       1.000          0.494                         0.506
      8       h      3       1.000          0.511                         0.489
      9       h      3       1.000          0.535                         0.465
     10       h      3       1.000          0.500                         0.500

  Total Charge                                                            0.015
 !-----------------------------------------------------------------------------!

 *******************************************************************************
 **                                                                           **
 **         ######## #######   #######   ######## #######  ########           **
 **            ##    ##     ## ##     ## ##       ##   ##     ##              **
 **            ##    ##     ## ##     ## ######   #######     ##              **
 **            ##    ##     ## ##     ## ##       ##          ##              **
 **            ##    #######   #######   ##       ##          ##              **
 **                                                                           **
 *******************************************************************************
 KERNEL|                                                                    FULL
 FUNCTIONAL| BECKE88:
 FUNCTIONAL| A. Becke, Phys. Rev. A 38, 3098 (1988) {LDA version}               
 FUNCTIONAL| LYP:
 FUNCTIONAL| C. Lee, W. Yang, R.G. Parr, Phys. Rev. B, 37, 785 (1988) {LDA versi
 FUNCTIONAL| on}                                                                
 FUNCTIONAL| VWN:
 FUNCTIONAL| S. H. Vosko, L. Wilk and M. Nusair, Can. J. Phys. 58, 1200 (1980) {
 FUNCTIONAL| LDA version}                                                       
 FUNCTIONAL| XALPHA:
 FUNCTIONAL| Dirac/Slater local exchange; parameter=  0.666 {LDA}               
 KERNEL|                                                          Exact Exchange
 KERNEL| Spin symmetry of excitations                                    Singlet
 TDDFPT| Number of states calculated                                           9
 TDDFPT| Number of Davidson iterations                                       100
 TDDFPT| Davidson iteration convergence                                0.367E-09
 TDDFPT| Max. number of Krylov space vectors                                5000
 TDDFPT| Molecular Orbitals:        Spin       AOs       Occ      Virt     Total
 TDDFPT|                               1       210        21       189       210
 
 -------------------------------------------------------------------------------
 -                            TDDFPT Initial Guess                             -
 -------------------------------------------------------------------------------
          State         Occupied      ->      Virtual          Excitation
          number         orbital              orbital          energy (eV)
 -------------------------------------------------------------------------------
             1               21                   22              3.74198
             2               21                   23              5.03944
             3               20                   22              5.21647
             4               19                   22              5.90232
             5               20                   23              6.51394
             6               18                   22              6.79990
             7               21                   24              7.02305
             8               19                   23              7.19979
             9               21                   25              7.38351

      Number of active states:                                       3969
 -------------------------------------------------------------------------------
 
 -------------------------------------------------------------------------------
 -                      TDDFPT WAVEFUNCTION OPTIMIZATION                       -
 -------------------------------------------------------------------------------

          Step            Time         Convergence           Conv. states
 -------------------------------------------------------------------------------

    State    Exc. energy (eV)      Convergence (eV)
        1       2.5526772            -1.1893E+00
        2       3.8044973            -1.2349E+00
        3       3.8973984            -1.3191E+00
        4       5.1700042            -7.3232E-01
        5       5.9880167            -5.2592E-01
        6       6.4411800            -3.5872E-01
        7       6.4825067            -5.4054E-01
        8       8.0892220             8.8943E-01
        9       9.1709278             1.7874E+00

             1             7.1          6.5686E-02                      0

    State    Exc. energy (eV)      Convergence (eV)
        1       2.4824668            -7.0210E-02
        2       3.7305326            -7.3965E-02
        3       3.8483681            -4.9030E-02
        4       5.0983683            -7.1636E-02
        5       5.6774602            -3.1056E-01
        6       6.1982647            -2.4292E-01
        7       6.2705151            -2.1199E-01
        8       6.7999586            -1.2893E+00
        9       7.8510378            -1.3199E+00

             2             7.1          4.8505E-02                      0

    State    Exc. energy (eV)      Convergence (eV)
        1       2.4793196            -3.1472E-03
        2       3.7264880            -4.0446E-03
        3       3.8448242            -3.5439E-03
        4       5.0922197            -6.1486E-03
        5       5.6425674            -3.4893E-02
        6       6.1588583            -3.9406E-02
        7       6.2358013            -3.4714E-02
        8       6.6051221            -1.9484E-01
        9       6.9921183            -8.5892E-01

             3             7.1          3.1565E-02                      0

    State    Exc. energy (eV)      Convergence (eV)
        1       2.4792443            -7.5307E-05
        2       3.7263849            -1.0312E-04
        3       3.8447048            -1.1942E-04
        4       5.0918262            -3.9350E-04
        5       5.6418869            -6.8048E-04
        6       6.1562821            -2.5762E-03
        7       6.2320039            -3.7974E-03
        8       6.5917732            -1.3349E-02
        9       6.9379184            -5.4200E-02

             4             7.1          1.9918E-03                      0

    State    Exc. energy (eV)      Convergence (eV)
        1       2.4792435            -7.9051E-07
        2       3.7263831            -1.7936E-06
        3       3.8447030            -1.7507E-06
        4       5.0918154            -1.0818E-05
        5       5.6418768            -1.0076E-05
        6       6.1561010            -1.8103E-04
        7       6.2317314            -2.7253E-04
        8       6.5904397            -1.3335E-03
        9       6.8552915            -8.2627E-02

             5             7.1          3.0365E-03                      0

    State    Exc. energy (eV)      Convergence (eV)
        1       2.4792435            -5.9197E-09
        2       3.7263831            -2.0582E-08
        3       3.8447030            -2.7447E-08
        4       5.0918152            -1.9592E-07
        5       5.6418766            -1.7050E-07
        6       6.1560941            -6.9389E-06
        7       6.2317175            -1.3885E-05
        8       6.5903235            -1.1618E-04
        9       6.8471426            -8.1489E-03

             6             7.1          2.9947E-04                      1

    State    Exc. energy (eV)      Convergence (eV)
        1       2.4792435            -3.4865E-11
        2       3.7263831            -1.8656E-10
        3       3.8447030            -2.5660E-10
        4       5.0918152            -2.7844E-09
        5       5.6418766            -2.2616E-09
        6       6.1560939            -1.8077E-07
        7       6.2317170            -4.4186E-07
        8       6.5903179            -5.5665E-06
        9       6.8460686            -1.0739E-03

             7             7.1          3.9466E-05                      5

    State    Exc. energy (eV)      Convergence (eV)
        1       2.4792435            -1.8504E-13
        2       3.7263831            -1.3580E-12
        3       3.8447030            -2.0551E-12
        4       5.0918152            -2.6118E-11
        5       5.6418766            -2.7907E-11
        6       6.1560939            -2.6649E-09
        7       6.2317170            -1.0419E-08
        8       6.5903177            -1.7966E-07
        9       6.8459825            -8.6185E-05

             8             7.1          3.1672E-06                      6

    State    Exc. energy (eV)      Convergence (eV)
        1       2.4792435             8.6856E-15
        2       3.7263831            -1.7371E-14
        3       3.8447030            -1.5105E-14
        4       5.0918152            -3.0437E-13
        5       5.6418766            -3.6479E-13
        6       6.1560939            -4.4101E-11
        7       6.2317170            -1.8662E-10
        8       6.5903177            -3.9822E-09
        9       6.8459795            -2.9391E-06

             9             7.1          1.0801E-07                      8

    State    Exc. energy (eV)      Convergence (eV)
        1       2.4792435            -1.1329E-14
        2       3.7263831             2.2658E-15
        3       3.8447030            -2.2658E-15
        4       5.0918152            -4.5316E-15
        5       5.6418766             7.5527E-16
        6       6.1560939            -5.1434E-13
        7       6.2317170            -2.4063E-12
        8       6.5903177            -6.8997E-11
        9       6.8459795            -4.2867E-08

            10             7.1          1.5753E-09                      8

    State    Exc. energy (eV)      Convergence (eV)
        1       2.4792435             1.3595E-14
        2       3.7263831            -1.5861E-14
        3       3.8447030            -7.5527E-16
        4       5.0918152            -5.2869E-15
        5       5.6418766            -4.5316E-15
        6       6.1560939            -7.5527E-15
        7       6.2317170            -2.1903E-14
        8       6.5903177            -7.1826E-13
        9       6.8459795            -3.9113E-10

            11             7.1          1.4374E-11                      9
 ------------------------- Restart Davidson iterations -------------------------

    State    Exc. energy (eV)      Convergence (eV)
        1       2.4792435            -7.5527E-15
        2       3.7263831             1.0574E-14
        3       3.8447030             0.0000E+00
        4       5.0918152             3.7763E-15
        5       5.6418766            -2.2658E-15
        6       6.1560939            -8.3079E-15
        7       6.2317170            -1.3595E-14
        8       6.5903177            -1.8882E-14
        9       6.8459795            -3.7763E-14

            12             7.1          1.3878E-15                      9
 
 -------------------------------------------------------------------------------
 -  TDDFPT run converged in 12 iteration(s) 
 -------------------------------------------------------------------------------

 R-TDDFPT states of multiplicity 1
 Transition dipoles calculated using length formulation

         State    Excitation        Transition dipole (a.u.)        Oscillator
         number   energy (eV)       x           y           z     strength (a.u.)
         ------------------------------------------------------------------------
 TDDFPT|      1       2.47924   1.4378E-01 -1.5249E-01 -1.5807E-01   4.18563E-03
 TDDFPT|      2       3.72638  -1.9321E-01 -1.2836E-01  3.6006E-02   5.03068E-03
 TDDFPT|      3       3.84470   1.0765E-02 -1.2326E-02  8.6630E-03   3.22960E-05
 TDDFPT|      4       5.09182   2.8940E-02 -4.0434E-02  1.5949E-02   3.40165E-04
 TDDFPT|      5       5.64188   3.3348E-02 -1.5565E-01 -5.0683E-01   3.90096E-02
 TDDFPT|      6       6.15609  -2.1240E-01  3.9739E-01  2.7163E-01   4.17502E-02
 TDDFPT|      7       6.23172   5.9586E-02  3.3121E-01 -5.8627E-01   6.97669E-02
 TDDFPT|      8       6.59032  -1.5422E-01 -1.0572E-01  1.1593E+00   2.22661E-01
 TDDFPT|      9       6.84598   3.3161E-02  6.0220E-02  2.2894E-01   9.58350E-03

 TDDFPT : CheckSum  =  0.592113E+00
 
 -------------------------------------------------------------------------------
 -                            Excitation analysis                              -
 -------------------------------------------------------------------------------
        State             Occupied              Virtual             Excitation
        number             orbital              orbital             amplitude
 -------------------------------------------------------------------------------
             1   2.47924 eV
                                21                   22              -0.987239
                                19                   22               0.125410
                                20                   22               0.056311
             2   3.72638 eV
                                21                   23               0.986261
                                19                   23              -0.096183
                                20                   22              -0.086545
             3   3.84470 eV
                                20                   22               0.991236
                                21                   23               0.084875
                                21                   22               0.056153
             4   5.09182 eV
                                20                   23              -0.988411
                                21                   26              -0.069286
             5   5.64188 eV
                                18                   22              -0.644418
                                19                   22              -0.521271
                                19                   23              -0.460316
                                18                   23               0.224588
                                21                   25               0.150390
                                21                   24              -0.072619
                                20                   23              -0.065762
                                21                   22              -0.060762
             6   6.15609 eV
                                19                   22               0.558463
                                18                   22              -0.438613
                                21                   24               0.428966
                                21                   25              -0.415501
                                19                   23              -0.280813
                                17                   22               0.115356
                                21                   26              -0.078937
                                21                   22               0.060177
             7   6.23172 eV
                                21                   24               0.862191
                                21                   25               0.295895
                                19                   22              -0.246876
                                19                   23               0.226764
                                21                   26               0.127381
                                18                   23               0.072235
                                21                   28              -0.068634
                                19                   24               0.052768
                                18                   22               0.051259
             8   6.59032 eV
                                21                   25               0.796098
                                19                   22               0.410171
                                18                   23              -0.252839
                                18                   22              -0.181478
                                17                   22               0.159530
                                21                   26               0.123779
                                21                   24              -0.095907
                                19                   23              -0.083859
                                20                   25              -0.080793
                                21                   28               0.075380
             9   6.84598 eV
                                21                   26              -0.919613
                                21                   25               0.206080
                                21                   28              -0.173106
                                21                   27              -0.158377
                                18                   22               0.100677
                                20                   24              -0.091817
                                19                   23              -0.090332
                                21                   29              -0.077251
                                20                   23               0.068622
                                21                   24               0.066150
 -------------------------------------------------------------------------------
 
 -------------------------------------------------------------------------------
 -                            Natural Orbital analysis                         -
 -------------------------------------------------------------------------------
   STATE NR.      1             2.47924 eV
     Particle-Hole state: 1   Spin:1     Eigenvalue: 0.99581   Sum Eigv: 0.99581
   STATE NR.      2             3.72638 eV
     Particle-Hole state: 1   Spin:1     Eigenvalue: 0.98563   Sum Eigv: 0.98563
   STATE NR.      3             3.84470 eV
     Particle-Hole state: 1   Spin:1     Eigenvalue: 0.98984   Sum Eigv: 0.98984
   STATE NR.      4             5.09182 eV
     Particle-Hole state: 1   Spin:1     Eigenvalue: 0.98395   Sum Eigv: 0.98395
   STATE NR.      5             5.64188 eV
     Particle-Hole state: 1   Spin:1     Eigenvalue: 0.71215   Sum Eigv: 0.71215
     Particle-Hole state: 2   Spin:1     Eigenvalue: 0.24896   Sum Eigv: 0.96112
     Particle-Hole state: 3   Spin:1     Eigenvalue: 0.03187   Sum Eigv: 0.99299
   STATE NR.      6             6.15609 eV
     Particle-Hole state: 1   Spin:1     Eigenvalue: 0.57671   Sum Eigv: 0.57671
     Particle-Hole state: 2   Spin:1     Eigenvalue: 0.36351   Sum Eigv: 0.94022
     Particle-Hole state: 3   Spin:1     Eigenvalue: 0.04256   Sum Eigv: 0.98278
   STATE NR.      7             6.23172 eV
     Particle-Hole state: 1   Spin:1     Eigenvalue: 0.86468   Sum Eigv: 0.86468
     Particle-Hole state: 2   Spin:1     Eigenvalue: 0.11547   Sum Eigv: 0.98015
   STATE NR.      8             6.59032 eV
     Particle-Hole state: 1   Spin:1     Eigenvalue: 0.68130   Sum Eigv: 0.68130
     Particle-Hole state: 2   Spin:1     Eigenvalue: 0.23040   Sum Eigv: 0.91170
     Particle-Hole state: 3   Spin:1     Eigenvalue: 0.07336   Sum Eigv: 0.98506
   STATE NR.      9             6.84598 eV
     Particle-Hole state: 1   Spin:1     Eigenvalue: 0.95623   Sum Eigv: 0.95623
     Particle-Hole state: 2   Spin:1     Eigenvalue: 0.02387   Sum Eigv: 0.98010
 -------------------------------------------------------------------------------
 Ground state orbital alignment:         1.000000[MinVal]      1.000000[Average]
 Excitation vector alignment:                                           1.000000
 Calculate properties for state:   1      with excitation energy      2.47924 eV

  HFX_MEM_INFO| Number of cart. primitive DERIV's calculated:        10852384956
[...]
 # max 3D layers                                1
 # MPI messages exchanged                  150912
 MPI messages size (bytes):
  total size                         1.162494E+09
  min size                           0.000000E+00
  max size                          31.744000E+03
  average size                       7.703123E+03
 MPI breakdown and total messages size (bytes):
             size <=      128               83967                        0
       128 < size <=     8192               12201                 83760264
      8192 < size <=    32768               54744               1078733376
     32768 < size <=   131072                   0                        0
    131072 < size <=  4194304                   0                        0
   4194304 < size <= 16777216                   0                        0
  16777216 < size                               0                        0
 -------------------------------------------------------------------------------
 -                                                                             -
 -                      DBCSR MESSAGE PASSING PERFORMANCE                      -
 -                                                                             -
 -------------------------------------------------------------------------------
 ROUTINE             CALLS      AVE VOLUME [Bytes]
 MP_Bcast               28                     12.
 MP_Allreduce         6714                      8.
 MP_Alltoall         26593                   2773.
 MP_ISend            25148                   3616.
 MP_IRecv            25148                   3332.
 -------------------------------------------------------------------------------

 -------------------------------------------------------------------------------
 -                                                                             -
 -                                DBM STATISTICS                               -
 -                                                                             -
 -------------------------------------------------------------------------------
    M  x    N  x    K                                          COUNT     PERCENT
 -------------------------------------------------------------------------------

 -------------------------------------------------------------------------------
 -                                                                             -
 -                                GRID STATISTICS                              -
 -                                                                             -
 -------------------------------------------------------------------------------
 LP    KERNEL             BACKEND                              COUNT     PERCENT
 1     collocate ortho    CPU                                 256520      15.63%
 2     collocate ortho    CPU                                 209220      12.75%
 1     integrate ortho    CPU                                 205890      12.55%
 0     collocate ortho    CPU                                 178860      10.90%
 2     integrate ortho    CPU                                 171949      10.48%
 3     collocate ortho    CPU                                 141020       8.60%
 0     integrate ortho    CPU                                 139023       8.47%
 3     integrate ortho    CPU                                 117219       7.14%
 4     collocate ortho    CPU                                  60720       3.70%
 4     integrate ortho    CPU                                  52324       3.19%
 4     collocate general  CPU                                  21312       1.30%
 5     collocate ortho    CPU                                  18480       1.13%
 5     integrate ortho    CPU                                  16572       1.01%
 4     integrate general  CPU                                  16416       1.00%
 2     collocate general  CPU                                  14208       0.87%
 2     integrate general  CPU                                  10944       0.67%
 6     collocate ortho    CPU                                   4620       0.28%
 6     integrate ortho    CPU                                   4263       0.26%
 5     integrate general  CPU                                    384       0.02%
 3     integrate general  CPU                                    256       0.02%
 7     integrate ortho    CPU                                    168       0.01%
 0     collocate general  CPU                                    160       0.01%
 0     integrate general  CPU                                    160       0.01%
 -------------------------------------------------------------------------------

 MEMORY| Estimated peak process memory [MiB]                                1282

 -------------------------------------------------------------------------------
 ----                             MULTIGRID INFO                            ----
 -------------------------------------------------------------------------------
 count for grid        1:         109539          cutoff [a.u.]          200.00
 count for grid        2:          22504          cutoff [a.u.]           66.67
 count for grid        3:           8627          cutoff [a.u.]           22.22
 count for grid        4:           1858          cutoff [a.u.]            7.41
 total gridlevel count  :         142528

 -------------------------------------------------------------------------------
 -                                                                             -
 -                         MESSAGE PASSING PERFORMANCE                         -
 -                                                                             -
 -------------------------------------------------------------------------------

 ROUTINE             CALLS      AVE VOLUME [Bytes]
 MP_Group                5
 MP_Bcast             5097                 922734.
 MP_Allreduce        15908                 139408.
 MP_Sync              1488
 MP_Alltoall          4372               15008083.
 MP_SendRecv          9960                 234017.
 MP_ISendRecv        16710                 125281.
 MP_Wait             35232
 MP_comm_split          50
 MP_ISend            15967                 822526.
 MP_IRecv            16130                 813861.
 -------------------------------------------------------------------------------


 -------------------------------------------------------------------------------
 -                                                                             -
 -                           R E F E R E N C E S                               -
 -                                                                             -
 -------------------------------------------------------------------------------
 
 CP2K version 2024.1 (Development Version), the CP2K developers group (2024).
 CP2K is freely available from https://www.cp2k.org/ .

 Kuehne,Thomas D.; Iannuzzi,Marcella; Del Ben,Mauro;
 Rybkin,Vladimir V.; Seewald,Patrick; Stein,Frederick; Laino,Teodoro;
 Khaliullin,Rustam Z.; Schuett,Ole; Schiffmann,Florian; Golze,Dorothea;
 Wilhelm,Jan; Chulkov,Sergey; Bani-Hashemian,Mohammad Hossein;
 Weber,Valery; Borstnik,Urban; Taillefumier,Mathieu;
 Jakobovits,Alice Shoshana; Lazzaro,Alfio; Pabst,Hans; Mueller,Tiziano;
 Schade,Robert; Guidon,Manuel; Andermatt,Samuel; Holmberg,Nico;
 Schenter,Gregory K.; Hehn,Anna; Bussy,Augustin; Belleflamme,Fabian;
 Tabacchi,Gloria; Gloess,Andreas; Lass,Michael; Bethune,Iain;
 Mundy,Christopher J.; Plessl,Christian; Watkins,Matt;
 VandeVondele,Joost; Krack,Matthias; Hutter,Juerg. 
 The Journal of Chemical Physics, 152 (19), (2020). 
 CP2K: An electronic structure and molecular dynamics software package -
 Quickstep: Efficient and accurate electronic structure calculations.
 https://doi.org/10.1063/5.0007045

 Goerigk, Lars; Hansen, Andreas; Bauer, Christoph; Ehrlich, Stephan;
 Najibi, Asim; Grimme, Stefan. , 19 (48), (2017). 
 A look at the density functional theory zoo with the advanced GMTKN55 database
 for general main group thermochemistry, kinetics and noncovalent interactions.
 https://doi.org/10.1039/C7CP04913G

 Schuett, Ole; Messmer, Peter; Hutter, Juerg; VandeVondele, Joost. 
 Electronic Structure Calculations on Graphics Processing Units, John
 Wiley & Sons, Ltd, 173-190 (2016). 
 GPU-Accelerated Sparse Matrix-Matrix Multiplication for
 Linear Scaling Density Functional Theory.
 https://doi.org/10.1002/9781118670712.ch8

 Heinecke, A; Henry, G; Hutchinson, M; Pabst, H. 
 Proceedings of Intl. Supercomputing Conference, 981-991 (2016). 
 LIBXSMM: Accelerating Small Matrix Multiplications
 by Runtime Code Generation.
 https://doi.org/10.1109/SC.2016.83

 Borstnik, U; VandeVondele, J; Weber, V; Hutter, J. 
 PARALLEL COMPUTING, 40 (5-6), 47-58 (2014). 
 Sparse matrix multiplication: The distributed block-compressed sparse
 row library.
 https://doi.org/10.1016/j.parco.2014.03.012

 Hutter, J; Iannuzzi, M; Schiffmann, F; VandeVondele, J. 
 WIREs Comput Mol Sci., 4 (1), 15-25 (2014). 
 CP2K: atomistic simulations of condensed matter systems.
 https://doi.org/10.1002/wcms.1159

 Grimme, S; Ehrlich, S; Goerigk, L. 
 JOURNAL OF COMPUTATIONAL CHEMISTRY, 32, 1456 (2011). 
 Effect of the damping function in dispersion corrected density functional theory.
 https://doi.org/10.1002/jcc.21759

 Grimme, S; Antony, J; Ehrlich, S; Krieg, H. 
 JOURNAL OF CHEMICAL PHYSICS, 132 (15), 154104 (2010). 
 A consistent and accurate ab initio parametrization of density
 functional dispersion correction (DFT-D) for the 94 elements H-Pu.
 https://doi.org/10.1063/1.3382344

 Guidon, M; Hutter, J; VandeVondele, J. 
 JOURNAL OF CHEMICAL THEORY AND COMPUTATION, 5 (11), 3010-3021 (2009). 
 Robust Periodic Hartree-Fock Exchange for Large-Scale Simulations Using
 Gaussian Basis Sets.
 https://doi.org/10.1021/ct900494g

 Guidon, M; Schiffmann, F; Hutter, J; VandeVondele, J. 
 JOURNAL OF CHEMICAL PHYSICS, 128 (21), 214104 (2008). 
 Ab initio molecular dynamics using hybrid density functionals.
 https://doi.org/10.1063/1.2931945

 VandeVondele, J; Hutter, J. 
 JOURNAL OF CHEMICAL PHYSICS, 127 (11), 114105 (2007). 
 Gaussian basis sets for accurate calculations on molecular systems in
 gas and condensed phases.
 https://doi.org/10.1063/1.2770708

 Frigo, M; Johnson, SG. 
 PROCEEDINGS OF THE IEEE, 93 (2), 216-231 (2005). 
 The design and implementation of FFTW3.
 https://doi.org/10.1109/JPROC.2004.840301

 Iannuzzi, M; Chassaing, T; Wallman, T; Hutter, J. 
 CHIMIA, 59 (7-8), 499-503 (2005). 
 Ground and excited state density functional calculations with the
 Gaussian and augmented-plane-wave method.
 https://doi.org/10.2533/000942905777676164

 VandeVondele, J; Hutter, J. 
 JOURNAL OF CHEMICAL PHYSICS, 118 (10), 4365-4369 (2003). 
 An efficient orbital transformation method for electronic structure
 calculations.
 https://doi.org/10.1063/1.1543154

 Martin,Richard L.. 
 The Journal of Chemical Physics, 118 (11), 4775-4777 (2003). 
 Natural transition orbitals.
 https://doi.org/10.1063/1.1558471

 Lippert, G; Hutter, J; Parrinello, M. 
 THEORETICAL CHEMISTRY ACCOUNTS, 103 (2), 124-140 (1999). 
 The Gaussian and augmented-plane-wave density functional method for ab
 initio molecular dynamics simulations.
 https://doi.org/10.1007/s002140050523

 Krack, M; Parrinello, M. 
 PHYSICAL CHEMISTRY CHEMICAL PHYSICS, 2 (10), 2105-2112 (2000). 
 All-electron ab-initio molecular dynamics.
 https://doi.org/10.1039/b001167n

 Martyna, GJ; Tuckerman, ME. 
 JOURNAL OF CHEMICAL PHYSICS, 110 (6), 2810-2821 (1999). 
 A reciprocal space based method for treating long range interactions in
 ab initio and force-field-based calculations in clusters.
 https://doi.org/10.1063/1.477923

 BECKE, AD. PHYSICAL REVIEW A, 38 (6), 3098-3100 (1988). 
 DENSITY-FUNCTIONAL EXCHANGE-ENERGY APPROXIMATION WITH CORRECT
 ASYMPTOTIC-BEHAVIOR.
 https://doi.org/10.1103/PhysRevA.38.3098

 LEE, CT; YANG, WT; PARR, RG. 
 PHYSICAL REVIEW B, 37 (2), 785-789 (1988). 
 DEVELOPMENT OF THE COLLE-SALVETTI CORRELATION-ENERGY FORMULA INTO A
 FUNCTIONAL OF THE ELECTRON-DENSITY.
 https://doi.org/10.1103/PhysRevB.37.785

 VOSKO, SH; WILK, L; NUSAIR, M. 
 CANADIAN JOURNAL OF PHYSICS, 58 (8), 1200-1211 (1980). 
 ACCURATE SPIN-DEPENDENT ELECTRON LIQUID CORRELATION ENERGIES FOR LOCAL
 SPIN-DENSITY CALCULATIONS - A CRITICAL ANALYSIS.
 https://doi.org/10.1139/p80-159


 -------------------------------------------------------------------------------
 -                                                                             -
 -                                T I M I N G                                  -
 -                                                                             -
 -------------------------------------------------------------------------------
 SUBROUTINE                       CALLS  ASD         SELF TIME        TOTAL TIME
                                MAXIMUM       AVERAGE  MAXIMUM  AVERAGE  MAXIMUM
 CP2K                                 1  1.0    0.009    0.013  192.460  192.461
 qs_forces                            1  2.0    0.001    0.001  191.898  191.898
 qs_energies                          1  3.0    0.000    0.000  124.852  124.852
 qs_energies_properties               1  4.0    0.000    0.000  109.639  109.639
 tddfpt                               1  5.0    0.000    0.000  109.639  109.639
 tddfpt_energies                      1  6.0    0.000    0.000   85.522   85.522
 tddfpt_davidson_solver               2  7.0    0.001    0.003   85.031   85.031
 tddfpt_compute_Aop_evects           12  8.0    0.000    0.000   84.794   84.795
 excited_state_energy                 2  3.5    0.001    0.001   58.177   58.177
 fft_wrap_pw1pw2                   3953 12.1    0.025    0.028   54.872   57.491
 fft_wrap_pw1pw2_200               2755 13.4    2.040    2.071   53.310   56.083
 fhxc_kernel                         12  9.0    0.003    0.003   54.131   54.131
 fft3d_ps                          3953 14.1   25.297   27.513   41.051   43.530
 response_equation                    1  4.0    0.000    0.000   43.334   43.334
 linres_solver                        1  5.0    0.001    0.003   43.312   43.312
 apply_op                            45  6.0    0.001    0.001   43.264   43.265
 integrate_four_center              282 10.6    0.045    0.046   42.904   42.912
 integrate_four_center_main         282 11.6    0.018    0.023   39.245   40.280
 integrate_four_center_bin        26790 12.6   39.227   40.265   39.227   40.265
 derivatives_four_center              4  8.5    0.003    0.004   34.105   34.638
 derivatives_four_center_main         4  9.5    0.000    0.000   34.047   34.581
 derivatives_four_center_bin        417 10.5   32.232   33.411   32.232   33.411
 xc_pw_derive                      1431 12.4    0.009    0.010   30.986   32.234
 tddfpt_apply_hfx                    12  9.0    0.001    0.001   30.593   30.593
 tddft_hfx_matrix                   216 10.0    0.004    0.004   30.284   30.284
 apply_op_2_dft                      44  7.0    0.002    0.002   25.729   25.836
 tddfpt_forces_main                   1  6.0    0.000    0.000   24.065   24.065
 tddfpt_forces                        1  7.0    0.000    0.000   23.162   23.162
 tddfpt_force_direct                  1  8.0    0.000    0.000   22.751   22.751
 tddfpt_kernel_force                  1  9.0    0.000    0.000   22.744   22.744
 fhxc_force                           1 10.0    0.001    0.001   22.744   22.744
 prepare_gapw_den                   226  8.8    0.004    0.004   22.475   22.555
 rebuild_ks_matrix                   18  6.8    0.000    0.000   22.426   22.426
 qs_ks_build_kohn_sham_matrix        18  7.8    0.002    0.002   22.426   22.426
 xc_pw_divergence                   215 12.3    0.004    0.004   18.437   19.728
 tddfpt_apply_xc_analytic           108 10.0    0.712    0.792   18.178   18.318
 qs_rho_update_rho_low              215  8.6    0.002    0.002   16.408   16.409
 calculate_rho_elec                 220  9.6    0.169    0.178   16.406   16.409
 scf_env_do_scf                       1  4.0    0.000    0.000   15.070   15.070
 response_force                       1  4.0    0.003    0.004   14.841   14.842
 qs_fxc_analytic                     45  8.0    0.001    0.002   14.743   14.841
 xc_calc_2nd_deriv_analytical       802 11.1    1.241    1.394   14.403   14.809
 hfx_ks_matrix                       18  8.8    0.000    0.001   14.025   14.025
 xc_rho_set_and_dset_create         108 12.1    1.086    1.212   11.643   13.675
 qs_ks_update_qs_env                 19  6.0    0.000    0.000   13.594   13.595
 density_rs2pw                      220 10.6    0.006    0.007   12.997   13.533
 mp_alltoall_z22v                  3953 16.1    9.573   13.198    9.573   13.198
 integrate_v_rspace                 179  9.4    0.003    0.003   11.825   12.326
 calculate_rho0_atom                666  9.8   11.442   12.325   11.442   12.325
 qs_vxc_create                       61 11.7    0.001    0.001   11.910   11.914
 xc_vxc_pw_create                    61 12.7    0.105    0.115   11.910   11.913
 scf_env_do_scf_inner_loop           17  5.0    0.000    0.001   11.156   11.156
 yz_to_x                           2019 15.3    2.800    3.087    8.685   11.064
 xc_calc_2nd_deriv                   46  8.9    0.291    0.341    9.390   10.517
 tddfpt_apply_coulomb               108 10.0    0.001    0.001    9.070   10.104
 qs_ks_update_qs_env_forces           1  3.0    0.000    0.000    8.833    8.833
 x_to_yz                           1934 15.0    3.335    3.692    7.023    8.797
 potential_pw2rs                    179 10.4    0.011    0.011    8.270    8.773
 qs_fgxc_gdiff                        1 11.0    0.000    0.000    8.363    8.364
 qs_fxc_fdiff                         7 12.0    0.000    0.000    8.342    8.343
 put_rho0_on_grid                   222  9.8    0.197    0.228    7.181    7.287
 xc_prep_2nd_deriv                   47  8.9    0.000    0.000    5.786    6.782
 transfer_rs2pw                    1103 11.4    0.007    0.008    6.095    6.642
 pw_gather_p                       2019 14.3    6.131    6.517    6.131    6.517
 apply_hfx                           44  7.0    0.001    0.001    6.232    6.239
 hfx_matrix                          44  8.0    0.001    0.001    6.230    6.236
 transfer_pw2rs                     892 11.3    0.004    0.005    5.846    5.859
 transfer_rs2pw_200                 443 12.2    2.538    2.623    4.967    5.527
 integrate_vhg0_rspace              175  9.9    1.029    1.114    5.482    5.493
 pw_poisson_solve                   176  9.9    0.002    0.002    4.051    5.240
 mp_sum_d                          2324  9.2    3.066    4.763    3.066    4.763
 transfer_pw2rs_200                 355 12.1    2.284    2.308    4.578    4.613
 xc_functional_eval                3344 11.9    0.003    0.006    2.519    4.541
 mp_waitany                       15960 13.2    3.625    4.234    3.625    4.234
 init_scf_loop                        1  5.0    0.000    0.000    3.914    3.914
 grid_collocate_task_list           220 10.6    2.891    3.868    2.891    3.868
 -------------------------------------------------------------------------------

 The number of warnings for this run is : 0
 
 -------------------------------------------------------------------------------
  **** **** ******  **  PROGRAM ENDED AT                 2025-01-09 09:43:48.739
 ***** ** ***  *** **   PROGRAM RAN ON                               nesh-srp240
 **    ****   ******    PROGRAM RAN BY                                  suphc356
 ***** **    ** ** **   PROGRAM PROCESS ID                               3806219
  **** **  *******  **  PROGRAM STOPPED IN /gxfs_work/cau/suphc356/NEWTONX_proje
                                           ct/Pyrazin_molecule/CP2K_GAPW_B3LYP_d
                                           ef2_TZVP/MOLDYN_BA_again/TRAJECTORIES
                                           /TRAJ206/TEMP
