 DBCSR| CPU Multiplication driver                                           XSMM (U)
 DBCSR| Multrec recursion limit                                              512 (U)
 DBCSR| Multiplication stack size                                           1000 (D)
 DBCSR| Maximum elements for images                                    UNLIMITED (U)
 DBCSR| Multiplicative factor virtual images                                   1 (U)
 DBCSR| Use multiplication densification                                       T (D)
 DBCSR| Multiplication size stacks                                             3 (U)
 DBCSR| Use memory pool for CPU allocation                                     F (U)
 DBCSR| Number of 3D layers                                               SINGLE (U)
 DBCSR| Use MPI memory allocation                                              F (U)
 DBCSR| Use RMA algorithm                                                      F (U)
 DBCSR| Use Communication thread                                               T (U)
 DBCSR| Communication thread load                                             83 (D)
 DBCSR| MPI: My process id                                                     0
 DBCSR| MPI: Number of processes                                              16
 DBCSR| OMP: Current number of threads                                         2
 DBCSR| OMP: Max number of threads                                             2
 DBCSR| Split modifier for TAS multiplication algorithm                  1.0E+00 (U)


  **** **** ******  **  PROGRAM STARTED AT               2024-12-07 05:13:30.367
 ***** ** ***  *** **   PROGRAM STARTED ON                           nesh-clk593
 **    ****   ******    PROGRAM STARTED BY                              suphc356
 ***** **    ** ** **   PROGRAM PROCESS ID                                934494
  **** **  *******  **  PROGRAM STARTED IN /gxfs_work/cau/suphc356/NEWTONX_proje
                                           ct/Pyrazin_molecule/CP2K_GAPW_B3LYP_d
                                           ef2_TZVP/IC_TDDFT_again/JOB_NAD

 CP2K| version string:                 CP2K version 2024.1 (Development Version)
 CP2K| source code revision number:                                  git:990486a
 CP2K| cp2kflags: omp libint fftw3 libxc libgrpp parallel mpi_f08 scalapack cosm
 CP2K|            a xsmm spglib mkl
 CP2K| is freely available from                            https://www.cp2k.org/
 CP2K| Program compiled at                          Mon Mar 11 08:48:45 CET 2024
 CP2K| Program compiled on                                           nesh-login2
 CP2K| Program compiled for                                                local
 CP2K| Data directory path                 /gxfs_work/cau/suphc356/cp2k_gcc/data
 CP2K| Input file name                                                  cp2k.inp

 GLOBAL| Force Environment number                                              1
 GLOBAL| Basis set file name                                     EMSL_BASIS_SETS
 GLOBAL| Potential file name                                      ALL_POTENTIALS
 GLOBAL| MM Potential file name                                     MM_POTENTIAL
 GLOBAL| Coordinate file name                                      __STD_INPUT__
 GLOBAL| Method name                                                        CP2K
 GLOBAL| Project name                                               testsuite_ad
 GLOBAL| Run type                                                   ENERGY_FORCE
 GLOBAL| FFT library                                                       FFTW3
 GLOBAL| Diagonalization library                                       ScaLAPACK
 GLOBAL| DGEMM library                                                      BLAS
 GLOBAL| Orthonormality check for eigenvectors                          DISABLED
 GLOBAL| Matrix multiplication library                                     COSMA
 GLOBAL| All-to-all communication in single precision                          F
 GLOBAL| FFTs using library dependent lengths                                  F
 GLOBAL| Grid backend                                                       AUTO
 GLOBAL| Global print level                                               MEDIUM
 GLOBAL| MPI I/O enabled                                                       T
 GLOBAL| Total number of message passing processes                            16
 GLOBAL| Number of threads for this process                                    2
 GLOBAL| This output is from process                                           0
 GLOBAL| Stack size for threads created by OpenMP (OMP_STACKSIZE)           256M
 GLOBAL| CPU model name                Intel(R) Xeon(R) Gold 6226R CPU @ 2.90GHz
 GLOBAL| CPUID                                                              1003
 GLOBAL| Compiled for CPUID                                                    0

 *** HINT in environment.F:920 :: The compiler target flags (generic) used ***
 *** to build this binary cannot exploit all extensions of this CPU model  ***
 *** (x86_avx512). Consider compiler target flags as part of FCFLAGS and   ***
 *** CFLAGS (ARCH file).                                                   ***


 MEMORY| system memory details [Kb]
 MEMORY|                        rank 0           min           max       average
 MEMORY| MemTotal            196683224     196683224     196683224     196683224
 MEMORY| MemFree             171422864     171422864     171422864     171422864
 MEMORY| Buffers               1118368       1118368       1118368       1118368
 MEMORY| Cached                1563400       1563400       1563400       1563400
 MEMORY| Slab                  7862940       7862940       7862940       7862940
 MEMORY| SReclaimable           339996        339996        339996        339996
 MEMORY| MemLikelyFree       174444628     174444628     174444628     174444628


 *** Fundamental physical constants (SI units) ***

 *** Literature: B. J. Mohr and B. N. Taylor,
 ***             CODATA recommended values of the fundamental physical
 ***             constants: 2006, Web Version 5.1
 ***             http://physics.nist.gov/constants

 Speed of light in vacuum [m/s]                             2.99792458000000E+08
 Magnetic constant or permeability of vacuum [N/A**2]       1.25663706143592E-06
 Electric constant or permittivity of vacuum [F/m]          8.85418781762039E-12
 Planck constant (h) [J*s]                                  6.62606896000000E-34
 Planck constant (h-bar) [J*s]                              1.05457162825177E-34
 Elementary charge [C]                                      1.60217648700000E-19
 Electron mass [kg]                                         9.10938215000000E-31
 Electron g factor [ ]                                     -2.00231930436220E+00
 Proton mass [kg]                                           1.67262163700000E-27
 Fine-structure constant                                    7.29735253760000E-03
 Rydberg constant [1/m]                                     1.09737315685270E+07
 Avogadro constant [1/mol]                                  6.02214179000000E+23
 Boltzmann constant [J/K]                                   1.38065040000000E-23
 Atomic mass unit [kg]                                      1.66053878200000E-27
 Bohr radius [m]                                            5.29177208590000E-11

 *** Conversion factors ***

 [u] -> [a.u.]                                              1.82288848426455E+03
 [Angstrom] -> [Bohr] = [a.u.]                              1.88972613288564E+00
 [a.u.] = [Bohr] -> [Angstrom]                              5.29177208590000E-01
 [a.u.] -> [s]                                              2.41888432650478E-17
 [a.u.] -> [fs]                                             2.41888432650478E-02
 [a.u.] -> [J]                                              4.35974393937059E-18
 [a.u.] -> [N]                                              8.23872205491840E-08
 [a.u.] -> [K]                                              3.15774647902944E+05
 [a.u.] -> [kJ/mol]                                         2.62549961709828E+03
 [a.u.] -> [kcal/mol]                                       6.27509468713739E+02
 [a.u.] -> [Pa]                                             2.94210107994716E+13
 [a.u.] -> [bar]                                            2.94210107994716E+08
 [a.u.] -> [atm]                                            2.90362800883016E+08
 [a.u.] -> [eV]                                             2.72113838565563E+01
 [a.u.] -> [Hz]                                             6.57968392072181E+15
 [a.u.] -> [1/cm] (wave numbers)                            2.19474631370540E+05
 [a.u./Bohr**2] -> [1/cm]                                   5.14048714338585E+03
 

 CELL_TOP| Volume [angstrom^3]:                                      2744.000000
 CELL_TOP| Vector a [angstrom    14.000     0.000     0.000   |a| =    14.000000
 CELL_TOP| Vector b [angstrom     0.000    14.000     0.000   |b| =    14.000000
 CELL_TOP| Vector c [angstrom     0.000     0.000    14.000   |c| =    14.000000
 CELL_TOP| Angle (b,c), alpha [degree]:                                90.000000
 CELL_TOP| Angle (a,c), beta  [degree]:                                90.000000
 CELL_TOP| Angle (a,b), gamma [degree]:                                90.000000
 CELL_TOP| Numerically orthorhombic:                                         YES
 CELL_TOP| Periodicity                                                      NONE

 CELL| Volume [angstrom^3]:                                          2744.000000
 CELL| Vector a [angstrom]:      14.000     0.000     0.000   |a| =    14.000000
 CELL| Vector b [angstrom]:       0.000    14.000     0.000   |b| =    14.000000
 CELL| Vector c [angstrom]:       0.000     0.000    14.000   |c| =    14.000000
 CELL| Angle (b,c), alpha [degree]:                                    90.000000
 CELL| Angle (a,c), beta  [degree]:                                    90.000000
 CELL| Angle (a,b), gamma [degree]:                                    90.000000
 CELL| Numerically orthorhombic:                                             YES
 CELL| Periodicity                                                          NONE

 CELL_REF| Volume [angstrom^3]:                                      2744.000000
 CELL_REF| Vector a [angstrom    14.000     0.000     0.000   |a| =    14.000000
 CELL_REF| Vector b [angstrom     0.000    14.000     0.000   |b| =    14.000000
 CELL_REF| Vector c [angstrom     0.000     0.000    14.000   |c| =    14.000000
 CELL_REF| Angle (b,c), alpha [degree]:                                90.000000
 CELL_REF| Angle (a,c), beta  [degree]:                                90.000000
 CELL_REF| Angle (a,b), gamma [degree]:                                90.000000
 CELL_REF| Numerically orthorhombic:                                         YES
 CELL_REF| Periodicity                                                      NONE

 *******************************************************************************
 *******************************************************************************
 **                                                                           **
 **     #####                         ##              ##                      **
 **    ##   ##            ##          ##              ##                      **
 **   ##     ##                       ##            ######                    **
 **   ##     ##  ##   ##  ##   #####  ##  ##   ####   ##    #####    #####    **
 **   ##     ##  ##   ##  ##  ##      ## ##   ##      ##   ##   ##  ##   ##   **
 **   ##  ## ##  ##   ##  ##  ##      ####     ###    ##   ######   ######    **
 **    ##  ###   ##   ##  ##  ##      ## ##      ##   ##   ##       ##        **
 **     #######   #####   ##   #####  ##  ##  ####    ##    #####   ##        **
 **           ##                                                    ##        **
 **                                                                           **
 **                                                ... make the atoms dance   **
 **                                                                           **
 **            Copyright (C) by CP2K developers group (2000-2024)             **
 **                      J. Chem. Phys. 152, 194103 (2020)                    **
 **                                                                           **
 *******************************************************************************

 DFT| Spin restricted Kohn-Sham (RKS) calculation                            RKS
 DFT| Multiplicity                                                             1
 DFT| Number of spin states                                                    1
 DFT| Charge                                                                   0
 DFT| Self-interaction correction (SIC)                                       NO
 DFT| Cutoffs: density                                              1.000000E-10
 DFT|          gradient                                             1.000000E-10
 DFT|          tau                                                  1.000000E-10
 DFT|          cutoff_smoothing_range                               0.000000E+00
 DFT| XC density smoothing                                                  NONE
 DFT| XC derivatives                                                          PW

 FUNCTIONAL| BECKE88:
 FUNCTIONAL| A. Becke, Phys. Rev. A 38, 3098 (1988) {LDA version}               
 FUNCTIONAL| LYP:
 FUNCTIONAL| C. Lee, W. Yang, R.G. Parr, Phys. Rev. B, 37, 785 (1988) {LDA versi
 FUNCTIONAL| on}                                                                
 FUNCTIONAL| VWN:
 FUNCTIONAL| S. H. Vosko, L. Wilk and M. Nusair, Can. J. Phys. 58, 1200 (1980) {
 FUNCTIONAL| LDA version}                                                       
 FUNCTIONAL| XALPHA:
 FUNCTIONAL| Dirac/Slater local exchange; parameter=  0.666 {LDA}               

 vdW POTENTIAL|                                                   Pair Potential
 vdW POTENTIAL|          DFT-D3 (Version 3.1)
 vdW POTENTIAL|          Potential Form: S. Grimme et al, JCP 132: 154104 (2010)
 vdW POTENTIAL|          Zero Damping
 vdW POTENTIAL|          Cutoff Radius [Bohr]:                             37.79
 vdW POTENTIAL|          s6 Scaling Factor:                               1.0000
 vdW POTENTIAL|          sr6 Scaling Factor:                              1.2610
 vdW POTENTIAL|          s8 Scaling Factor:                               1.7030
 vdW POTENTIAL|          Cutoff for CN calculation:                   0.1000E-05

 QS| Method:                                                                GAPW
 QS| Density plane wave grid type                        NON-SPHERICAL FULLSPACE
 QS| Number of grid levels:                                                    4
 QS| Density cutoff [a.u.]:                                                200.0
 QS| Multi grid cutoff [a.u.]: 1) grid level                               200.0
 QS|                           2) grid level                                66.7
 QS|                           3) grid level                                22.2
 QS|                           4) grid level                                 7.4
 QS| Grid level progression factor:                                          3.0
 QS| Relative density cutoff [a.u.]:                                        30.0
 QS| Interaction thresholds: eps_pgf_orb:                                1.0E-07
 QS|                         eps_filter_matrix:                          0.0E+00
 QS|                         eps_core_charge:                            1.0E-16
 QS|                         eps_rho_gspace:                             1.0E-14
 QS|                         eps_rho_rspace:                             1.0E-14
 QS|                         eps_gvg_rspace:                             1.0E-07
 QS|                         eps_ppl:                                    1.0E-02
 QS|                         eps_ppnl:                                   1.0E-09
 QS| GAPW|      One center basis extended with primitives (small:s)
 QS| GAPW|                   eps_fit:                                    1.0E-04
 QS| GAPW|                   eps_iso:                                    1.0E-12
 QS| GAPW|                   eps_svd:                                    1.0E-08
 QS| GAPW|                   eps_cpc:                                    1.0E-14
 QS| GAPW|   atom-r-grid: quadrature:                                     GC_LOG
 QS| GAPW|      atom-s-grid:  max l :                                          6
 QS| GAPW|      max_l_rho0 :                                                   4


 ATOMIC KIND INFORMATION

  1. Atomic kind: n                                     Number of atoms:       2

     Orbital Basis Set                                        Ahlrichs-def2-TZVP

       Number of orbital shell sets:                                          11
       Number of orbital shells:                                              11
       Number of primitive Cartesian functions:                               20
       Number of Cartesian basis functions:                                   36
       Number of spherical basis functions:                                   31
       Norm type:                                                              2

       Normalised Cartesian orbitals:

                        Set   Shell   Orbital            Exponent    Coefficient

                          1       1    1s            19730.800647       0.695604
                                                      2957.895874       1.298610
                                                       673.221336       2.219088
                                                       190.682495       3.463661
                                                        62.295442       4.696756
                                                        22.654161       4.952251

                          2       1    1s                8.979148       2.388068
                                                         3.686300       0.733788

                          3       1    1s                0.846601       0.629027

                          4       1    1s                0.336471       0.314863

                          5       1    1s                0.136477       0.160031

                          6       1    1px              49.200381       2.126481
                                                        11.346791       2.327937
                                                         3.427397       2.048573
                                                         1.178553       1.260732
                          6       1    1py              49.200381       2.126481
                                                        11.346791       2.327937
                                                         3.427397       2.048573
                                                         1.178553       1.260732
                          6       1    1pz              49.200381       2.126481
                                                        11.346791       2.327937
                                                         3.427397       2.048573
                                                         1.178553       1.260732

                          7       1    1px               0.416422       0.476823
                          7       1    1py               0.416422       0.476823
                          7       1    1pz               0.416422       0.476823

                          8       1    1px               0.142608       0.124917
                          8       1    1py               0.142608       0.124917
                          8       1    1pz               0.142608       0.124917

                          9       1    1dx2              1.654000       3.970513
                          9       1    1dxy              1.654000       6.877130
                          9       1    1dxz              1.654000       6.877130
                          9       1    1dy2              1.654000       3.970513
                          9       1    1dyz              1.654000       6.877130
                          9       1    1dz2              1.654000       3.970513

                         10       1    1dx2              0.469000       0.437484
                         10       1    1dxy              0.469000       0.757744
                         10       1    1dxz              0.469000       0.757744
                         10       1    1dy2              0.469000       0.437484
                         10       1    1dyz              0.469000       0.757744
                         10       1    1dz2              0.469000       0.437484

                         11       1    1fx3              1.093000       1.798249
                         11       1    1fx2y             1.093000       4.021007
                         11       1    1fx2z             1.093000       4.021007
                         11       1    1fxy2             1.093000       4.021007
                         11       1    1fxyz             1.093000       6.964588
                         11       1    1fxz2             1.093000       4.021007
                         11       1    1fy3              1.093000       1.798249
                         11       1    1fy2z             1.093000       4.021007
                         11       1    1fyz2             1.093000       4.021007
                         11       1    1fz3              1.093000       1.798249

       Atomic covalent radius [Angstrom]:                                  0.750

       Atomic van der Waals radius [Angstrom]:                             1.550

     The atoms of this atomic kind are PAW atoms (GAPW):
       Hard Gaussian function radius:                                      1.400
       Rho0 radius:                                                        1.400
       Maximum GTO radius used for PAW projector construction:            24.566

     GAPW Soft Basis Set                                 Ahlrichs-def2-TZVP_soft

       Number of orbital shell sets:                                          11
       Number of orbital shells:                                              11
       Number of primitive Cartesian functions:                               11
       Number of Cartesian basis functions:                                   36
       Number of spherical basis functions:                                   31
       Norm type:                                                              2

       Normalised Cartesian orbitals:

                        Set   Shell   Orbital            Exponent    Coefficient

                          1       1    1s         

                          2       1    1s                3.686300       0.733788

                          3       1    1s                0.846601       0.629027

                          4       1    1s                0.336471       0.314863

                          5       1    1s                0.136477       0.160031

                          6       1    1px               3.427397       2.048573
                                                         1.178553       1.260732
                          6       1    1py               3.427397       2.048573
                                                         1.178553       1.260732
                          6       1    1pz               3.427397       2.048573
                                                         1.178553       1.260732

                          7       1    1px               0.416422       0.476823
                          7       1    1py               0.416422       0.476823
                          7       1    1pz               0.416422       0.476823

                          8       1    1px               0.142608       0.124917
                          8       1    1py               0.142608       0.124917
                          8       1    1pz               0.142608       0.124917

                          9       1    1dx2              1.654000       3.970513
                          9       1    1dxy              1.654000       6.877130
                          9       1    1dxz              1.654000       6.877130
                          9       1    1dy2              1.654000       3.970513
                          9       1    1dyz              1.654000       6.877130
                          9       1    1dz2              1.654000       3.970513

                         10       1    1dx2              0.469000       0.437484
                         10       1    1dxy              0.469000       0.757744
                         10       1    1dxz              0.469000       0.757744
                         10       1    1dy2              0.469000       0.437484
                         10       1    1dyz              0.469000       0.757744
                         10       1    1dz2              0.469000       0.437484

                         11       1    1fx3              1.093000       1.798249
                         11       1    1fx2y             1.093000       4.021007
                         11       1    1fx2z             1.093000       4.021007
                         11       1    1fxy2             1.093000       4.021007
                         11       1    1fxyz             1.093000       6.964588
                         11       1    1fxz2             1.093000       4.021007
                         11       1    1fy3              1.093000       1.798249
                         11       1    1fy2z             1.093000       4.021007
                         11       1    1fyz2             1.093000       4.021007
                         11       1    1fz3              1.093000       1.798249

     AE Potential information for                                            ALL

       Description:                                       All-electron potential
                                          Krack, Parrinello, PCCP 2, 2105 (2000)

       Gaussian exponent of the core charge distribution:               5.979100
       Electronic configuration (s p d ...):                           4   3   0

  2. Atomic kind: c                                     Number of atoms:       4

     Orbital Basis Set                                        Ahlrichs-def2-TZVP

       Number of orbital shell sets:                                          11
       Number of orbital shells:                                              11
       Number of primitive Cartesian functions:                               20
       Number of Cartesian basis functions:                                   36
       Number of spherical basis functions:                                   31
       Norm type:                                                              2

       Normalised Cartesian orbitals:

                        Set   Shell   Orbital            Exponent    Coefficient

                          1       1    1s            13575.349682       0.543591
                                                      2035.233368       1.014554
                                                       463.225624       1.731573
                                                       131.200196       2.691038
                                                        42.853016       3.604455
                                                        15.584186       3.702556

                          2       1    1s                6.206714       1.838354
                                                         2.576490       0.544758

                          3       1    1s                0.576963       0.471815

                          4       1    1s                0.229728       0.236494

                          5       1    1s                0.095164       0.122114

                          6       1    1px              34.697232       1.359665
                                                         7.958262       1.451259
                                                         2.378083       1.270923
                                                         0.814332       0.802572
                          6       1    1py              34.697232       1.359665
                                                         7.958262       1.451259
                                                         2.378083       1.270923
                                                         0.814332       0.802572
                          6       1    1pz              34.697232       1.359665
                                                         7.958262       1.451259
                                                         2.378083       1.270923
                                                         0.814332       0.802572

                          7       1    1px               0.288875       0.301876
                          7       1    1py               0.288875       0.301876
                          7       1    1pz               0.288875       0.301876

                          8       1    1px               0.100568       0.080727
                          8       1    1py               0.100568       0.080727
                          8       1    1pz               0.100568       0.080727

                          9       1    1dx2              1.097000       1.935401
                          9       1    1dxy              1.097000       3.352214
                          9       1    1dxz              1.097000       3.352214
                          9       1    1dy2              1.097000       1.935401
                          9       1    1dyz              1.097000       3.352214
                          9       1    1dz2              1.097000       1.935401

                         10       1    1dx2              0.318000       0.221644
                         10       1    1dxy              0.318000       0.383899
                         10       1    1dxz              0.318000       0.383899
                         10       1    1dy2              0.318000       0.221644
                         10       1    1dyz              0.318000       0.383899
                         10       1    1dz2              0.318000       0.221644

                         11       1    1fx3              0.761000       0.796288
                         11       1    1fx2y             0.761000       1.780553
                         11       1    1fx2z             0.761000       1.780553
                         11       1    1fxy2             0.761000       1.780553
                         11       1    1fxyz             0.761000       3.084008
                         11       1    1fxz2             0.761000       1.780553
                         11       1    1fy3              0.761000       0.796288
                         11       1    1fy2z             0.761000       1.780553
                         11       1    1fyz2             0.761000       1.780553
                         11       1    1fz3              0.761000       0.796288

       Atomic covalent radius [Angstrom]:                                  0.770

       Atomic van der Waals radius [Angstrom]:                             1.700

     The atoms of this atomic kind are PAW atoms (GAPW):
       Hard Gaussian function radius:                                      1.520
       Rho0 radius:                                                        1.520
       Maximum GTO radius used for PAW projector construction:            24.566

     GAPW Soft Basis Set                                 Ahlrichs-def2-TZVP_soft

       Number of orbital shell sets:                                          11
       Number of orbital shells:                                              11
       Number of primitive Cartesian functions:                               11
       Number of Cartesian basis functions:                                   36
       Number of spherical basis functions:                                   31
       Norm type:                                                              2

       Normalised Cartesian orbitals:

                        Set   Shell   Orbital            Exponent    Coefficient

                          1       1    1s         

                          2       1    1s                2.576490       0.544758

                          3       1    1s                0.576963       0.471815

                          4       1    1s                0.229728       0.236494

                          5       1    1s                0.095164       0.122114

                          6       1    1px               2.378083       1.270923
                                                         0.814332       0.802572
                          6       1    1py               2.378083       1.270923
                                                         0.814332       0.802572
                          6       1    1pz               2.378083       1.270923
                                                         0.814332       0.802572

                          7       1    1px               0.288875       0.301876
                          7       1    1py               0.288875       0.301876
                          7       1    1pz               0.288875       0.301876

                          8       1    1px               0.100568       0.080727
                          8       1    1py               0.100568       0.080727
                          8       1    1pz               0.100568       0.080727

                          9       1    1dx2              1.097000       1.935401
                          9       1    1dxy              1.097000       3.352214
                          9       1    1dxz              1.097000       3.352214
                          9       1    1dy2              1.097000       1.935401
                          9       1    1dyz              1.097000       3.352214
                          9       1    1dz2              1.097000       1.935401

                         10       1    1dx2              0.318000       0.221644
                         10       1    1dxy              0.318000       0.383899
                         10       1    1dxz              0.318000       0.383899
                         10       1    1dy2              0.318000       0.221644
                         10       1    1dyz              0.318000       0.383899
                         10       1    1dz2              0.318000       0.221644

                         11       1    1fx3              0.761000       0.796288
                         11       1    1fx2y             0.761000       1.780553
                         11       1    1fx2z             0.761000       1.780553
                         11       1    1fxy2             0.761000       1.780553
                         11       1    1fxyz             0.761000       3.084008
                         11       1    1fxz2             0.761000       1.780553
                         11       1    1fy3              0.761000       0.796288
                         11       1    1fy2z             0.761000       1.780553
                         11       1    1fyz2             0.761000       1.780553
                         11       1    1fz3              0.761000       0.796288

     AE Potential information for                                            ALL

       Description:                                       All-electron potential
                                          Krack, Parrinello, PCCP 2, 2105 (2000)

       Gaussian exponent of the core charge distribution:               4.109048
       Electronic configuration (s p d ...):                           4   2   0

  3. Atomic kind: h                                     Number of atoms:       4

     Orbital Basis Set                                        Ahlrichs-def2-TZVP

       Number of orbital shell sets:                                           4
       Number of orbital shells:                                               4
       Number of primitive Cartesian functions:                                6
       Number of Cartesian basis functions:                                    6
       Number of spherical basis functions:                                    6
       Norm type:                                                              2

       Normalised Cartesian orbitals:

                        Set   Shell   Orbital            Exponent    Coefficient

                          1       1    1s               34.061341       0.255630
                                                         5.123575       0.461360
                                                         1.164663       0.681121

                          2       1    1s                0.327230       0.308355

                          3       1    1s                0.103072       0.129648

                          4       1    1px               0.800000       1.078456
                          4       1    1py               0.800000       1.078456
                          4       1    1pz               0.800000       1.078456

       Atomic covalent radius [Angstrom]:                                  0.320

       Atomic van der Waals radius [Angstrom]:                             1.090

     The atoms of this atomic kind are PAW atoms (GAPW):
       Hard Gaussian function radius:                                      1.000
       Rho0 radius:                                                        1.000
       Maximum GTO radius used for PAW projector construction:            24.566

     GAPW Soft Basis Set                                 Ahlrichs-def2-TZVP_soft

       Number of orbital shell sets:                                           4
       Number of orbital shells:                                               4
       Number of primitive Cartesian functions:                                5
       Number of Cartesian basis functions:                                    6
       Number of spherical basis functions:                                    6
       Norm type:                                                              2

       Normalised Cartesian orbitals:

                        Set   Shell   Orbital            Exponent    Coefficient

                          1       1    1s                5.123575       0.461360
                                                         1.164663       0.681121

                          2       1    1s                0.327230       0.308355

                          3       1    1s                0.103072       0.129648

                          4       1    1px               0.800000       1.078456
                          4       1    1py               0.800000       1.078456
                          4       1    1pz               0.800000       1.078456

     AE Potential information for                                            ALL

       Description:                                       All-electron potential
                                          Krack, Parrinello, PCCP 2, 2105 (2000)

       Gaussian exponent of the core charge distribution:              12.500000
       Electronic configuration (s p d ...):                           1   0   0


 MOLECULE KIND INFORMATION


 All atoms are their own molecule, skipping detailed information


 TOTAL NUMBERS AND MAXIMUM NUMBERS

  Total number of            - Atomic kinds:                                   3
                             - Atoms:                                         10
                             - Shell sets:                                    82
                             - Shells:                                        82
                             - Primitive Cartesian functions:                144
                             - Cartesian basis functions:                    240
                             - Spherical basis functions:                    210

  Maximum angular momentum of the orbital basis functions:                     3


 MODULE QUICKSTEP: ATOMIC COORDINATES IN ANGSTROM

   Atom Kind Element         X             Y             Z       Z(eff)     Mass
      1    1 n     7      6.999999      8.234125      7.662184   7.0000  14.0067
      2    1 n     7      7.000000      5.765875      6.337816   7.0000  14.0067
      3    2 c     6      7.000004      7.079055      8.325229   6.0000  12.0107
      4    2 c     6      7.000004      5.852034      7.666862   6.0000  12.0107
      5    2 c     6      6.999996      8.147966      6.333138   6.0000  12.0107
      6    2 c     6      6.999996      6.920945      5.674771   6.0000  12.0107
      7    3 h     1      7.000007      7.128845      9.409149   1.0000   1.0079
      8    3 h     1      7.000008      4.921333      8.224706   1.0000   1.0079
      9    3 h     1      6.999992      9.078667      5.775294   1.0000   1.0079
     10    3 h     1      6.999993      6.871155      4.590851   1.0000   1.0079



 SCF PARAMETERS         Density guess:                                   RESTART
                        --------------------------------------------------------
                        max_scf:                                              50
                        max_scf_history:                                       0
                        max_diis:                                              4
                        --------------------------------------------------------
                        eps_scf:                                        1.00E-08
                        eps_scf_history:                                0.00E+00
                        eps_diis:                                       1.00E-01
                        eps_eigval:                                     1.00E-05
                        --------------------------------------------------------
                        level_shift [a.u.]:                             0.000000
                        --------------------------------------------------------
                        Outer loop SCF in use 
                        No variables optimised in outer loop
                        eps_scf                                         1.00E-08
                        max_scf                                              900
                        No outer loop optimization
                        step_size                                       5.00E-01

 PW_GRID| Information for grid number                                          1
 PW_GRID| Grid distributed over                                    16 processors
 PW_GRID| Real space group dimensions                                    16    1
 PW_GRID| the grid is blocked:                                                NO
 PW_GRID| Cutoff [a.u.]                                                    400.0
 PW_GRID| spherical cutoff:                                                   NO
 PW_GRID|   Bounds   1           -120     119                Points:         240
 PW_GRID|   Bounds   2           -120     119                Points:         240
 PW_GRID|   Bounds   3           -120     119                Points:         240
 PW_GRID| Volume element (a.u.^3)  0.1340E-02     Volume (a.u.^3)     18517.4301
 PW_GRID| Grid span                                                    FULLSPACE
 PW_GRID|   Distribution                         Average         Max         Min
 PW_GRID|   G-Vectors                           864000.0      864000      864000
 PW_GRID|   G-Rays                                3600.0        3600        3600
 PW_GRID|   Real Space Points                   864000.0      864000      864000

 PW_GRID| Information for grid number                                          2
 PW_GRID| Number of the reference grid                                         1
 PW_GRID| Grid distributed over                                    16 processors
 PW_GRID| Real space group dimensions                                    16    1
 PW_GRID| the grid is blocked:                                                NO
 PW_GRID| Cutoff [a.u.]                                                    200.0
 PW_GRID| spherical cutoff:                                                   NO
 PW_GRID|   Bounds   1            -90      89                Points:         180
 PW_GRID|   Bounds   2            -90      89                Points:         180
 PW_GRID|   Bounds   3            -90      89                Points:         180
 PW_GRID| Volume element (a.u.^3)  0.3175E-02     Volume (a.u.^3)     18517.4301
 PW_GRID| Grid span                                                    FULLSPACE
 PW_GRID|   Distribution                         Average         Max         Min
 PW_GRID|   G-Vectors                           364500.0      364680      364320
 PW_GRID|   G-Rays                                2025.0        2026        2024
 PW_GRID|   Real Space Points                   364500.0      388800      356400

 PW_GRID| Information for grid number                                          3
 PW_GRID| Number of the reference grid                                         2
 PW_GRID| Grid distributed over                                    16 processors
 PW_GRID| Real space group dimensions                                    16    1
 PW_GRID| the grid is blocked:                                                NO
 PW_GRID| Cutoff [a.u.]                                                     66.7
 PW_GRID| spherical cutoff:                                                   NO
 PW_GRID|   Bounds   1            -50      49                Points:         100
 PW_GRID|   Bounds   2            -50      49                Points:         100
 PW_GRID|   Bounds   3            -50      49                Points:         100
 PW_GRID| Volume element (a.u.^3)  0.1852E-01     Volume (a.u.^3)     18517.4301
 PW_GRID| Grid span                                                    FULLSPACE
 PW_GRID|   Distribution                         Average         Max         Min
 PW_GRID|   G-Vectors                            62500.0       62600       62400
 PW_GRID|   G-Rays                                 625.0         626         624
 PW_GRID|   Real Space Points                    62500.0       70000       60000

 PW_GRID| Information for grid number                                          4
 PW_GRID| Number of the reference grid                                         2
 PW_GRID| Grid distributed over                                    16 processors
 PW_GRID| Real space group dimensions                                    16    1
 PW_GRID| the grid is blocked:                                                NO
 PW_GRID| Cutoff [a.u.]                                                     22.2
 PW_GRID| spherical cutoff:                                                   NO
 PW_GRID|   Bounds   1            -30      29                Points:          60
 PW_GRID|   Bounds   2            -30      29                Points:          60
 PW_GRID|   Bounds   3            -30      29                Points:          60
 PW_GRID| Volume element (a.u.^3)  0.8573E-01     Volume (a.u.^3)     18517.4301
 PW_GRID| Grid span                                                    FULLSPACE
 PW_GRID|   Distribution                         Average         Max         Min
 PW_GRID|   G-Vectors                            13500.0       13560       13440
 PW_GRID|   G-Rays                                 225.0         226         224
 PW_GRID|   Real Space Points                    13500.0       14400       10800

 PW_GRID| Information for grid number                                          5
 PW_GRID| Number of the reference grid                                         2
 PW_GRID| Grid distributed over                                    16 processors
 PW_GRID| Real space group dimensions                                    16    1
 PW_GRID| the grid is blocked:                                                NO
 PW_GRID| Cutoff [a.u.]                                                      7.4
 PW_GRID| spherical cutoff:                                                   NO
 PW_GRID|   Bounds   1            -18      17                Points:          36
 PW_GRID|   Bounds   2            -18      17                Points:          36
 PW_GRID|   Bounds   3            -18      17                Points:          36
 PW_GRID| Volume element (a.u.^3)  0.3969         Volume (a.u.^3)     18517.4301
 PW_GRID| Grid span                                                    FULLSPACE
 PW_GRID|   Distribution                         Average         Max         Min
 PW_GRID|   G-Vectors                             2916.0        2952        2880
 PW_GRID|   G-Rays                                  81.0          82          80
 PW_GRID|   Real Space Points                     2916.0        3888        2592

 POISSON| Solver                                          Martyna-Tuckerman (MT)
 POISSON| MT| Alpha                                                        7.000
 POISSON| MT| Relative cutoff                                                2.0
 POISSON| Periodicity                                                       NONE

 RS_GRID| Information for grid number                                          2
 RS_GRID|   Bounds   1            -90      89                Points:         180
 RS_GRID|   Bounds   2            -90      89                Points:         180
 RS_GRID|   Bounds   3            -90      89                Points:         180
 RS_GRID| Real space distribution over                                  4 groups
 RS_GRID| Real space distribution along direction                              2
 RS_GRID| Border size                                                         31
 RS_GRID| Real space distribution over                                  4 groups
 RS_GRID| Real space distribution along direction                              3
 RS_GRID| Border size                                                         31
 RS_GRID|   Distribution                         Average         Max         Min
 RS_GRID|   Planes                                 107.0         107         107
 RS_GRID|   Distribution                         Average         Max         Min
 RS_GRID|   Planes                                 107.0         107         107

 RS_GRID| Information for grid number                                          3
 RS_GRID|   Bounds   1            -50      49                Points:         100
 RS_GRID|   Bounds   2            -50      49                Points:         100
 RS_GRID|   Bounds   3            -50      49                Points:         100
 RS_GRID| Real space fully replicated
 RS_GRID| Group size                                                           1

 RS_GRID| Information for grid number                                          4
 RS_GRID|   Bounds   1            -30      29                Points:          60
 RS_GRID|   Bounds   2            -30      29                Points:          60
 RS_GRID|   Bounds   3            -30      29                Points:          60
 RS_GRID| Real space fully replicated
 RS_GRID| Group size                                                           1

 RS_GRID| Information for grid number                                          5
 RS_GRID|   Bounds   1            -18      17                Points:          36
 RS_GRID|   Bounds   2            -18      17                Points:          36
 RS_GRID|   Bounds   3            -18      17                Points:          36
 RS_GRID| Real space fully replicated
 RS_GRID| Group size                                                           1

  HFX_INFO| Replica ID:                                                        1
  HFX_INFO| FRACTION:                                               0.2000000000
  HFX_INFO| Interaction Potential:                                       COULOMB
  HFX_INFO| EPS_SCHWARZ:                                                 1.0E-10
  HFX_INFO| EPS_SCHWARZ_FORCES                                           1.0E-08
  HFX_INFO| EPS_STORAGE_SCALING:                                         1.0E+00
  HFX_INFO| NBINS:                                                            64
  HFX_INFO| BLOCK_SIZE:                                                        1
  HFX_INFO| Number of periodic shells considered:                           NONE
  HFX_INFO| Number of periodic cells considered:                            NONE


 Number of electrons:                                                         42
 Number of occupied orbitals:                                                 21
 Number of molecular orbitals:                                                21

 Number of orbital functions:                                                210
 Number of independent orbital functions:                                    210

 Extrapolation method: initial_guess


 SCF WAVEFUNCTION OPTIMIZATION

  ----------------------------------- OT ---------------------------------------
  Minimizer      : DIIS                : direct inversion
                                         in the iterative subspace
                                         using   7 DIIS vectors
                                         safer DIIS on
  Preconditioner : FULL_ALL            : diagonalization, state selective
  Precond_solver : DEFAULT
  stepsize       :    0.15000000                  energy_gap     :    0.08000000
  eps_taylor     :   0.10000E-15                  max_taylor     :             4
  ----------------------------------- OT ---------------------------------------

  Step     Update method      Time    Convergence         Total energy    Change
  ------------------------------------------------------------------------------

  HFX_MEM_INFO| Est. max. program size before HFX [MiB]:                     665
  HFX_MEM_INFO| Number of cart. primitive ERI's calculated:           1722579006
  HFX_MEM_INFO| Number of sph. ERI's calculated:                       316117120
  HFX_MEM_INFO| Number of sph. ERI's stored in-core:                   316117120
  HFX_MEM_INFO| Number of sph. ERI's stored on disk:                           0
  HFX_MEM_INFO| Number of sph. ERI's calculated on the fly:                    0
  HFX_MEM_INFO| Total memory consumption ERI's RAM [MiB]:                    890
  HFX_MEM_INFO| Whereof max-vals [MiB]:                                        3
  HFX_MEM_INFO| Total compression factor ERI's RAM:                         2.71
  HFX_MEM_INFO| Total memory consumption ERI's disk [MiB]:                     0
  HFX_MEM_INFO| Total compression factor ERI's disk:                        0.00
  HFX_MEM_INFO| Size of density/Fock matrix [MiB]:                             0
  HFX_MEM_INFO| Size of buffers [MiB]:                                         0
  HFX_MEM_INFO| Est. max. program size after HFX  [MiB]:                     941

     1 OT DIIS     0.15E+00    4.6     2.1023E-09      -264.2656088452 -2.64E+02

  *** SCF run converged in     1 steps ***


  Electronic density on regular grids:        -30.6473733246       11.3526266754
  Core density on regular grids:               42.0000000000       -0.0000000000
  Hard and soft densities (Lebedev):          -98.7674924244      -87.4148657322
  Total Rho_soft + Rho1_hard - Rho1_soft      -42.0000000168
  Total charge density (r-space):              -0.0000000169
  Total Rho_soft + Rho0_soft (g-space):        -0.0000000424

  Overlap energy of the core charge distribution:               0.00000847169262
  Self energy of the core charge distribution:               -217.69203579805162
  Core Hamiltonian energy:                                    -41.76633176553747
  Hartree energy:                                             109.60971090985373
  Exchange-correlation energy:                                -11.25557682823201
  Hartree-Fock Exchange energy:                                -7.07141384579924
  Dispersion energy:                                           -0.00380791030526

  GAPW| Exc from hard and soft atomic rho1:                   -18.55559772517602
  GAPW| local Eh = 1 center integrals:                        -77.53056435360951

  Total energy:                                              -264.26560884516476

  outer SCF iter =    1 RMS gradient =   0.21E-08 energy =       -264.2656088452
  outer SCF loop converged in   1 iterations or    1 steps


 !-----------------------------------------------------------------------------!
                     Mulliken Population Analysis

 #  Atom  Element  Kind  Atomic population                           Net charge
       1     n        1          7.202969                             -0.202969
       2     n        1          7.202969                             -0.202969
       3     c        2          6.024255                             -0.024255
       4     c        2          6.023968                             -0.023968
       5     c        2          6.023968                             -0.023968
       6     c        2          6.024255                             -0.024255
       7     h        3          0.874250                              0.125750
       8     h        3          0.874559                              0.125441
       9     h        3          0.874559                              0.125441
      10     h        3          0.874250                              0.125750
 # Total charge                             42.000000                 -0.000000

 !-----------------------------------------------------------------------------!

 !-----------------------------------------------------------------------------!
                           Hirshfeld Charges

  #Atom  Element  Kind  Ref Charge     Population                    Net charge
      1       n      1       7.000          7.280                        -0.280
      2       n      1       7.000          7.280                        -0.280
      3       c      2       6.000          6.345                        -0.345
      4       c      2       6.000          6.345                        -0.345
      5       c      2       6.000          6.345                        -0.345
      6       c      2       6.000          6.345                        -0.345
      7       h      3       1.000          0.512                         0.488
      8       h      3       1.000          0.512                         0.488
      9       h      3       1.000          0.512                         0.488
     10       h      3       1.000          0.512                         0.488

  Total Charge                                                            0.010
 !-----------------------------------------------------------------------------!

 *******************************************************************************
 **                                                                           **
 **         ######## #######   #######   ######## #######  ########           **
 **            ##    ##     ## ##     ## ##       ##   ##     ##              **
 **            ##    ##     ## ##     ## ######   #######     ##              **
 **            ##    ##     ## ##     ## ##       ##          ##              **
 **            ##    #######   #######   ##       ##          ##              **
 **                                                                           **
 *******************************************************************************
 KERNEL|                                                                    FULL
 FUNCTIONAL| BECKE88:
 FUNCTIONAL| A. Becke, Phys. Rev. A 38, 3098 (1988) {LDA version}               
 FUNCTIONAL| LYP:
 FUNCTIONAL| C. Lee, W. Yang, R.G. Parr, Phys. Rev. B, 37, 785 (1988) {LDA versi
 FUNCTIONAL| on}                                                                
 FUNCTIONAL| VWN:
 FUNCTIONAL| S. H. Vosko, L. Wilk and M. Nusair, Can. J. Phys. 58, 1200 (1980) {
 FUNCTIONAL| LDA version}                                                       
 FUNCTIONAL| XALPHA:
 FUNCTIONAL| Dirac/Slater local exchange; parameter=  0.666 {LDA}               
 KERNEL|                                                          Exact Exchange
 KERNEL| Spin symmetry of excitations                                    Singlet
 TDDFPT| Number of states calculated                                          10
 TDDFPT| Number of Davidson iterations                                       100
 TDDFPT| Davidson iteration convergence                                0.367E-09
 TDDFPT| Max. number of Krylov space vectors                                5000
 TDDFPT| Molecular Orbitals:        Spin       AOs       Occ      Virt     Total
 TDDFPT|                               1       210        21       189       210
 
 -------------------------------------------------------------------------------
 -                            TDDFPT Initial Guess                             -
 -------------------------------------------------------------------------------
          State         Occupied      ->      Virtual          Excitation
          number         orbital              orbital          energy (eV)
 -------------------------------------------------------------------------------
             1               21                   22              5.31919
             2               21                   23              6.04644
             3               20                   22              6.06739
             4               20                   23              6.79463
             5               19                   22              6.98045
             6               18                   22              7.55459
             7               19                   23              7.70769
             8               18                   23              8.28183
             9               21                   24              8.59162
            10               21                   25              8.94401

      Number of active states:                                       3969
 -------------------------------------------------------------------------------
 
 -------------------------------------------------------------------------------
 -                      TDDFPT WAVEFUNCTION OPTIMIZATION                       -
 -------------------------------------------------------------------------------

          Step            Time         Convergence           Conv. states
 -------------------------------------------------------------------------------

    State    Exc. energy (eV)      Convergence (eV)
        1       4.0713932            -1.2478E+00
        2       4.6443240            -1.4021E+00
        3       5.7703913            -2.9700E-01
        4       5.8199403            -9.7469E-01
        5       6.3961512            -5.8430E-01
        6       7.6932964             1.3871E-01
        7       7.7953001             8.7610E-02
        8       8.0810673            -2.0076E-01
        9      10.0196519             1.4280E+00
       10      10.6566533             1.7126E+00

             1             9.2          6.2939E-02                      0

    State    Exc. energy (eV)      Convergence (eV)
        1       4.0005519            -7.0841E-02
        2       4.6227833            -2.1541E-02
        3       5.6113215            -1.5907E-01
        4       5.6547608            -1.6518E-01
        5       6.3684075            -2.7744E-02
        6       6.8129421            -8.8035E-01
        7       7.7044032            -9.0897E-02
        8       8.0163364            -6.4731E-02
        9       8.3697500            -1.6499E+00
       10       9.1513214            -1.5053E+00

             2             9.2          6.0633E-02                      0

    State    Exc. energy (eV)      Convergence (eV)
        1       3.9975403            -3.0116E-03
        2       4.6224942            -2.8910E-04
        3       5.6084353            -2.8863E-03
        4       5.6478013            -6.9595E-03
        5       6.3674986            -9.0888E-04
        6       6.8034946            -9.4475E-03
        7       7.6831753            -2.1228E-02
        8       8.0103020            -6.0344E-03
        9       8.2877969            -8.1953E-02
       10       8.3466029            -8.0472E-01

             3             9.2          2.9573E-02                      0

    State    Exc. energy (eV)      Convergence (eV)
        1       3.9974111            -1.2919E-04
        2       4.6224906            -3.5486E-06
        3       5.6084279            -7.3123E-06
        4       5.6476810            -1.2037E-04
        5       6.3674892            -9.4325E-06
        6       6.8032564            -2.3823E-04
        7       7.6781631            -5.0122E-03
        8       8.0102431            -5.8864E-05
        9       8.2652394            -2.2558E-02
       10       8.3464625            -1.4045E-04

             4             9.1          8.2897E-04                      0

    State    Exc. energy (eV)      Convergence (eV)
        1       3.9974102            -9.4567E-07
        2       4.6224906            -4.2354E-08
        3       5.6084279            -5.1649E-08
        4       5.6476783            -2.6073E-06
        5       6.3674891            -8.2256E-08
        6       6.8032517            -4.6871E-06
        7       7.6770103            -1.1528E-03
        8       8.0102416            -1.5142E-06
        9       8.2582172            -7.0222E-03
       10       8.3464594            -3.0558E-06

             5             9.3          2.5806E-04                      0

    State    Exc. energy (eV)      Convergence (eV)
        1       3.9974102            -6.3319E-09
        2       4.6224906            -6.2973E-10
        3       5.6084279            -3.7963E-10
        4       5.6476783            -5.9895E-08
        5       6.3674891            -1.5437E-09
        6       6.8032516            -8.5265E-08
        7       7.6768629            -1.4734E-04
        8       7.8453011            -1.6494E-01
        9       8.0102416            -2.4798E-01
       10       8.2574384            -8.9021E-02

             6             9.2          9.1129E-03                      4

    State    Exc. energy (eV)      Convergence (eV)
        1       3.9974102            -2.1938E-11
        2       4.6224906            -2.1193E-12
        3       5.6084279            -6.7219E-13
        4       5.6476783            -7.3326E-10
        5       6.3674891            -3.3401E-11
        6       6.8032516            -7.6194E-10
        7       7.6768590            -3.9105E-06
        8       7.6999604            -1.4534E-01
        9       8.0102416            -1.0023E-10
       10       8.2574085            -2.9965E-05

             7             9.2          5.3412E-03                      7

    State    Exc. energy (eV)      Convergence (eV)
        1       3.9974102            -8.7611E-14
        2       4.6224906            -7.5527E-16
        3       5.6084279            -1.5105E-15
        4       5.6476783            -6.6849E-12
        5       6.3674891            -4.3730E-13
        6       6.8032516            -3.8639E-12
        7       7.6768588            -2.2436E-07
        8       7.6995631            -3.9730E-04
        9       8.0102416            -5.4228E-13
       10       8.2574082            -2.9301E-07

             8             9.2          1.4600E-05                      7

    State    Exc. energy (eV)      Convergence (eV)
        1       3.9974102             1.5105E-15
        2       4.6224906            -2.2658E-15
        3       5.6084279             3.0211E-15
        4       5.6476783            -2.4169E-14
        5       6.3674891            -3.7763E-15
        6       6.8032516            -3.7763E-14
        7       7.6768588            -8.3427E-09
        8       7.6995591            -4.0212E-06
        9       8.0102416            -9.0632E-15
       10       8.2574082            -4.0095E-09

             9             9.2          1.4777E-07                      9

    State    Exc. energy (eV)      Convergence (eV)
        1       3.9974102             4.5316E-15
        2       4.6224906            -6.7974E-15
        3       5.6084279             1.5105E-15
        4       5.6476783            -6.7974E-15
        5       6.3674891             1.5105E-15
        6       6.8032516            -7.5527E-15
        7       7.6768588            -2.6927E-10
        8       7.6995590            -1.0147E-07
        9       8.0102416             4.5316E-15
       10       8.2574082            -3.7091E-11

            10             9.3          3.7288E-09                      9

    State    Exc. energy (eV)      Convergence (eV)
        1       3.9974102            -9.0632E-15
        2       4.6224906            -2.2658E-15
        3       5.6084279            -3.0211E-15
        4       5.6476783             0.0000E+00
        5       6.3674891             4.5316E-15
        6       6.8032516             9.0632E-15
        7       7.6768588            -5.6192E-12
        8       7.6995590            -6.2697E-10
        9       8.0102416             1.8126E-14
       10       8.2574082            -4.8186E-13

            11             9.4          2.3041E-11                     10
 ------------------------- Restart Davidson iterations -------------------------

    State    Exc. energy (eV)      Convergence (eV)
        1       3.9974102             1.1329E-14
        2       4.6224906             9.0632E-15
        3       5.6084279            -6.0421E-15
        4       5.6476783            -7.5527E-16
        5       6.3674891            -6.7974E-15
        6       6.8032516            -9.0632E-15
        7       7.6768588             4.9848E-14
        8       7.6995590             7.5527E-15
        9       8.0102416            -1.5105E-15
       10       8.2574082            -3.9274E-14

            12             9.6          1.8319E-15                     10
 
 -------------------------------------------------------------------------------
 -  TDDFPT run converged in 12 iteration(s) 
 -------------------------------------------------------------------------------

 R-TDDFPT states of multiplicity 1
 Transition dipoles calculated using length formulation

         State    Excitation        Transition dipole (a.u.)        Oscillator
         number   energy (eV)       x           y           z     strength (a.u.)
         ------------------------------------------------------------------------
 TDDFPT|      1       3.99741  -2.5107E-01 -5.2019E-07  7.9364E-07   6.17360E-03
 TDDFPT|      2       4.62249  -6.5728E-06 -1.6939E-08 -6.7721E-09   4.89264E-12
 TDDFPT|      3       5.60843  -3.2646E-06  4.1871E-01 -7.8029E-01   1.07748E-01
 TDDFPT|      4       5.64768  -2.9915E-08 -3.5461E-08  3.3852E-08   4.56372E-16
 TDDFPT|      5       6.36749  -8.8430E-09  3.5849E-08 -5.5059E-08   6.85603E-16
 TDDFPT|      6       6.80325  -2.4703E-07  6.1321E-01  3.2906E-01   8.07229E-02
 TDDFPT|      7       7.67686   9.6992E-10 -3.7106E-09 -8.0546E-08   1.22296E-15
 TDDFPT|      8       7.69956  -1.2953E-05  7.7639E-08  3.7433E-08   3.16514E-11
 TDDFPT|      9       8.01024  -5.0167E-07  6.3181E-02 -1.2152E-01   3.68131E-03
 TDDFPT|     10       8.25741   4.9179E-07 -1.2552E+00 -6.7918E-01   4.12056E-01

 TDDFPT : CheckSum  =  0.769188E+00
 
 -------------------------------------------------------------------------------
 -                            Excitation analysis                              -
 -------------------------------------------------------------------------------
        State             Occupied              Virtual             Excitation
        number             orbital              orbital             amplitude
 -------------------------------------------------------------------------------
             1   3.99741 eV
                                21                   22               0.997908
             2   4.62249 eV
                                21                   23               0.999115
             3   5.60843 eV
                                20                   22               0.891887
                                18                   23              -0.435243
             4   5.64768 eV
                                19                   22               0.994451
                                21                   29               0.068906
             5   6.36749 eV
                                19                   23               0.998634
             6   6.80325 eV
                                20                   23               0.848104
                                18                   22               0.493845
                                16                   29               0.060365
             7   7.67686 eV
                                21                   24               0.980669
                                21                   26              -0.156303
                                16                   22               0.079064
                                19                   27              -0.067215
             8   7.69956 eV
                                17                   22               0.997055
             9   8.01024 eV
                                21                   25               0.914586
                                18                   23              -0.364608
                                20                   22              -0.127890
                                20                   33              -0.061019
                                21                   41               0.054854
            10   8.25741 eV
                                18                   22               0.736252
                                20                   23              -0.432761
                                21                   27              -0.373508
                                19                   24              -0.225004
                                21                   38               0.111615
                                19                   42               0.092950
                                17                   32               0.087647
                                21                   31              -0.083740
                                14                   26               0.060007
                                17                   41               0.051320
 -------------------------------------------------------------------------------
 
 -------------------------------------------------------------------------------
 -                            Natural Orbital analysis                         -
 -------------------------------------------------------------------------------
   STATE NR.      1             3.99741 eV
     Particle-Hole state: 1   Spin:1     Eigenvalue: 0.99705   Sum Eigv: 0.99705
   STATE NR.      2             4.62249 eV
     Particle-Hole state: 1   Spin:1     Eigenvalue: 0.99901   Sum Eigv: 0.99901
   STATE NR.      3             5.60843 eV
     Particle-Hole state: 1   Spin:1     Eigenvalue: 0.79735   Sum Eigv: 0.79735
     Particle-Hole state: 2   Spin:1     Eigenvalue: 0.18995   Sum Eigv: 0.98730
   STATE NR.      4             5.64768 eV
     Particle-Hole state: 1   Spin:1     Eigenvalue: 0.99229   Sum Eigv: 0.99229
   STATE NR.      5             6.36749 eV
     Particle-Hole state: 1   Spin:1     Eigenvalue: 0.99817   Sum Eigv: 0.99817
   STATE NR.      6             6.80325 eV
     Particle-Hole state: 1   Spin:1     Eigenvalue: 0.72068   Sum Eigv: 0.72068
     Particle-Hole state: 2   Spin:1     Eigenvalue: 0.24479   Sum Eigv: 0.96546
     Particle-Hole state: 3   Spin:1     Eigenvalue: 0.00807   Sum Eigv: 0.97354
     Particle-Hole state: 4   Spin:1     Eigenvalue: 0.00496   Sum Eigv: 0.97850
   STATE NR.      7             7.67686 eV
     Particle-Hole state: 1   Spin:1     Eigenvalue: 0.98646   Sum Eigv: 0.98646
   STATE NR.      8             7.69956 eV
     Particle-Hole state: 1   Spin:1     Eigenvalue: 0.99596   Sum Eigv: 0.99596
   STATE NR.      9             8.01024 eV
     Particle-Hole state: 1   Spin:1     Eigenvalue: 0.84070   Sum Eigv: 0.84070
     Particle-Hole state: 2   Spin:1     Eigenvalue: 0.13307   Sum Eigv: 0.97378
     Particle-Hole state: 3   Spin:1     Eigenvalue: 0.02015   Sum Eigv: 0.99393
   STATE NR.     10             8.25741 eV
     Particle-Hole state: 1   Spin:1     Eigenvalue: 0.54441   Sum Eigv: 0.54441
     Particle-Hole state: 2   Spin:1     Eigenvalue: 0.18877   Sum Eigv: 0.73318
     Particle-Hole state: 3   Spin:1     Eigenvalue: 0.16543   Sum Eigv: 0.89862
     Particle-Hole state: 4   Spin:1     Eigenvalue: 0.06392   Sum Eigv: 0.96254
     Particle-Hole state: 5   Spin:1     Eigenvalue: 0.01322   Sum Eigv: 0.97576
 -------------------------------------------------------------------------------
 Ground state orbital alignment:         1.000000[MinVal]      1.000000[Average]
 Excitation vector alignment:                                           1.000000
 Calculate properties for state:   4      with excitation energy      5.64768 eV

  HFX_MEM_INFO| Number of cart. primitive DERIV's calculated:        11157074748
  HFX_MEM_INFO| Number of sph. DERIV's calculated:                    2786546256
  HFX_MEM_INFO| Number of sph. DERIV's stored in-core:                         0
  HFX_MEM_INFO| Number of sph. DERIV's calculated on the fly:         2786546256
  HFX_MEM_INFO| Total memory consumption DERIV's RAM [MiB]:                    0
  HFX_MEM_INFO| Whereof max-vals [MiB]:                                        1
  HFX_MEM_INFO| Total compression factor DERIV's RAM:                       0.00

 !--------------------------- Excited State Energy ----------------------------!
 Results for Excited State Nr.                                                 4
 Excitation Energy [Hartree]                                        0.2075483670
 Total Energy [Hartree]                                          -264.0580604781
 !-----------------------------------------------------------------------------!

  HFX_MEM_INFO| Number of cart. primitive DERIV's calculated:        13655138412
  HFX_MEM_INFO| Number of sph. DERIV's calculated:                    3166612404
  HFX_MEM_INFO| Number of sph. DERIV's stored in-core:                         0
  HFX_MEM_INFO| Number of sph. DERIV's calculated on the fly:         3166612404
  HFX_MEM_INFO| Total memory consumption DERIV's RAM [MiB]:                    0
  HFX_MEM_INFO| Whereof max-vals [MiB]:                                        1
  HFX_MEM_INFO| Total compression factor DERIV's RAM:                       0.00

 !--------------------------- Excited State Forces ----------------------------!

  Iteration    Method   Restart      Stepsize      Convergence         Time
  ------------------------------------------------------------------------------
        1        PCG       F         0.00E+00      0.0037775295        0.04
        2        PCG       F         0.31E+00      0.0011647207        1.25
        3        PCG       F         0.64E-01      0.0004098370        2.45
        4        PCG       F         0.10E+00      0.0004966618        3.66
        5        PCG       F         0.12E+00      0.0003435890        4.86
        6        PCG       F         0.89E-01      0.0001251425        6.07
        7        PCG       F         0.58E-01      0.0000470731        7.27
        8        PCG       F         0.88E-01      0.0000225678        8.48
        9        PCG       F         0.93E-01      0.0000174824        9.69
[...]
             size <=      128               56265                        0
       128 < size <=     8192                9321                 67235112
      8192 < size <=    32768               51342               1023753024
     32768 < size <=   131072                   0                        0
    131072 < size <=  4194304                   0                        0
   4194304 < size <= 16777216                   0                        0
  16777216 < size                               0                        0
 -------------------------------------------------------------------------------
 -                                                                             -
 -                      DBCSR MESSAGE PASSING PERFORMANCE                      -
 -                                                                             -
 -------------------------------------------------------------------------------
 ROUTINE             CALLS      AVE VOLUME [Bytes]
 MP_Bcast               35                     12.
 MP_Allreduce         4749                      8.
 MP_Alltoall         26193                   2877.
 MP_ISend            19484                   4196.
 MP_IRecv            19484                   3947.
 -------------------------------------------------------------------------------

 -------------------------------------------------------------------------------
 -                                                                             -
 -                                DBM STATISTICS                               -
 -                                                                             -
 -------------------------------------------------------------------------------
    M  x    N  x    K                                          COUNT     PERCENT
 -------------------------------------------------------------------------------

 -------------------------------------------------------------------------------
 -                                                                             -
 -                                GRID STATISTICS                              -
 -                                                                             -
 -------------------------------------------------------------------------------
 LP    KERNEL             BACKEND                              COUNT     PERCENT
 1     collocate ortho    CPU                                 220596      15.42%
 1     integrate ortho    CPU                                 186760      13.05%
 2     collocate ortho    CPU                                 178002      12.44%
 2     integrate ortho    CPU                                 154952      10.83%
 0     collocate ortho    CPU                                 150846      10.54%
 0     integrate ortho    CPU                                 123272       8.62%
 3     collocate ortho    CPU                                 119040       8.32%
 3     integrate ortho    CPU                                 104936       7.33%
 4     collocate ortho    CPU                                  51336       3.59%
 4     integrate ortho    CPU                                  47072       3.29%
 4     collocate general  CPU                                  18048       1.26%
 5     collocate ortho    CPU                                  15624       1.09%
 5     integrate ortho    CPU                                  14976       1.05%
 4     integrate general  CPU                                  14592       1.02%
 2     collocate general  CPU                                  12032       0.84%
 2     integrate general  CPU                                   9728       0.68%
 6     collocate ortho    CPU                                   3906       0.27%
 6     integrate ortho    CPU                                   3864       0.27%
 5     integrate general  CPU                                    384       0.03%
 3     integrate general  CPU                                    256       0.02%
 7     integrate ortho    CPU                                    168       0.01%
 0     collocate general  CPU                                    160       0.01%
 0     integrate general  CPU                                    160       0.01%
 -------------------------------------------------------------------------------

 MEMORY| Estimated peak process memory [MiB]                                1547

 -------------------------------------------------------------------------------
 ----                             MULTIGRID INFO                            ----
 -------------------------------------------------------------------------------
 count for grid        1:         109558          cutoff [a.u.]          200.00
 count for grid        2:          22508          cutoff [a.u.]           66.67
 count for grid        3:           8627          cutoff [a.u.]           22.22
 count for grid        4:           1858          cutoff [a.u.]            7.41
 total gridlevel count  :         142551

 -------------------------------------------------------------------------------
 -                                                                             -
 -                         MESSAGE PASSING PERFORMANCE                         -
 -                                                                             -
 -------------------------------------------------------------------------------

 ROUTINE             CALLS      AVE VOLUME [Bytes]
 MP_Group                5
 MP_Bcast             4296                1091522.
 MP_Allreduce        14946                 131820.
 MP_Sync              1439
 MP_Alltoall          3812               15037002.
 MP_SendRecv          8430                 233760.
 MP_ISendRecv        15645                 120644.
 MP_Wait             31746
 MP_comm_split          36
 MP_ISend            13847                 822428.
 MP_IRecv            14027                 811606.
 -------------------------------------------------------------------------------


 -------------------------------------------------------------------------------
 -                                                                             -
 -                           R E F E R E N C E S                               -
 -                                                                             -
 -------------------------------------------------------------------------------
 
 CP2K version 2024.1 (Development Version), the CP2K developers group (2024).
 CP2K is freely available from https://www.cp2k.org/ .

 Kuehne,Thomas D.; Iannuzzi,Marcella; Del Ben,Mauro;
 Rybkin,Vladimir V.; Seewald,Patrick; Stein,Frederick; Laino,Teodoro;
 Khaliullin,Rustam Z.; Schuett,Ole; Schiffmann,Florian; Golze,Dorothea;
 Wilhelm,Jan; Chulkov,Sergey; Bani-Hashemian,Mohammad Hossein;
 Weber,Valery; Borstnik,Urban; Taillefumier,Mathieu;
 Jakobovits,Alice Shoshana; Lazzaro,Alfio; Pabst,Hans; Mueller,Tiziano;
 Schade,Robert; Guidon,Manuel; Andermatt,Samuel; Holmberg,Nico;
 Schenter,Gregory K.; Hehn,Anna; Bussy,Augustin; Belleflamme,Fabian;
 Tabacchi,Gloria; Gloess,Andreas; Lass,Michael; Bethune,Iain;
 Mundy,Christopher J.; Plessl,Christian; Watkins,Matt;
 VandeVondele,Joost; Krack,Matthias; Hutter,Juerg. 
 The Journal of Chemical Physics, 152 (19), (2020). 
 CP2K: An electronic structure and molecular dynamics software package -
 Quickstep: Efficient and accurate electronic structure calculations.
 https://doi.org/10.1063/5.0007045

 Goerigk, Lars; Hansen, Andreas; Bauer, Christoph; Ehrlich, Stephan;
 Najibi, Asim; Grimme, Stefan. , 19 (48), (2017). 
 A look at the density functional theory zoo with the advanced GMTKN55 database
 for general main group thermochemistry, kinetics and noncovalent interactions.
 https://doi.org/10.1039/C7CP04913G

 Schuett, Ole; Messmer, Peter; Hutter, Juerg; VandeVondele, Joost. 
 Electronic Structure Calculations on Graphics Processing Units, John
 Wiley & Sons, Ltd, 173-190 (2016). 
 GPU-Accelerated Sparse Matrix-Matrix Multiplication for
 Linear Scaling Density Functional Theory.
 https://doi.org/10.1002/9781118670712.ch8

 Heinecke, A; Henry, G; Hutchinson, M; Pabst, H. 
 Proceedings of Intl. Supercomputing Conference, 981-991 (2016). 
 LIBXSMM: Accelerating Small Matrix Multiplications
 by Runtime Code Generation.
 https://doi.org/10.1109/SC.2016.83

 Borstnik, U; VandeVondele, J; Weber, V; Hutter, J. 
 PARALLEL COMPUTING, 40 (5-6), 47-58 (2014). 
 Sparse matrix multiplication: The distributed block-compressed sparse
 row library.
 https://doi.org/10.1016/j.parco.2014.03.012

 Hutter, J; Iannuzzi, M; Schiffmann, F; VandeVondele, J. 
 WIREs Comput Mol Sci., 4 (1), 15-25 (2014). 
 CP2K: atomistic simulations of condensed matter systems.
 https://doi.org/10.1002/wcms.1159

 Grimme, S; Ehrlich, S; Goerigk, L. 
 JOURNAL OF COMPUTATIONAL CHEMISTRY, 32, 1456 (2011). 
 Effect of the damping function in dispersion corrected density functional theory.
 https://doi.org/10.1002/jcc.21759

 Grimme, S; Antony, J; Ehrlich, S; Krieg, H. 
 JOURNAL OF CHEMICAL PHYSICS, 132 (15), 154104 (2010). 
 A consistent and accurate ab initio parametrization of density
 functional dispersion correction (DFT-D) for the 94 elements H-Pu.
 https://doi.org/10.1063/1.3382344

 Guidon, M; Hutter, J; VandeVondele, J. 
 JOURNAL OF CHEMICAL THEORY AND COMPUTATION, 5 (11), 3010-3021 (2009). 
 Robust Periodic Hartree-Fock Exchange for Large-Scale Simulations Using
 Gaussian Basis Sets.
 https://doi.org/10.1021/ct900494g

 Guidon, M; Schiffmann, F; Hutter, J; VandeVondele, J. 
 JOURNAL OF CHEMICAL PHYSICS, 128 (21), 214104 (2008). 
 Ab initio molecular dynamics using hybrid density functionals.
 https://doi.org/10.1063/1.2931945

 VandeVondele, J; Hutter, J. 
 JOURNAL OF CHEMICAL PHYSICS, 127 (11), 114105 (2007). 
 Gaussian basis sets for accurate calculations on molecular systems in
 gas and condensed phases.
 https://doi.org/10.1063/1.2770708

 Frigo, M; Johnson, SG. 
 PROCEEDINGS OF THE IEEE, 93 (2), 216-231 (2005). 
 The design and implementation of FFTW3.
 https://doi.org/10.1109/JPROC.2004.840301

 Iannuzzi, M; Chassaing, T; Wallman, T; Hutter, J. 
 CHIMIA, 59 (7-8), 499-503 (2005). 
 Ground and excited state density functional calculations with the
 Gaussian and augmented-plane-wave method.
 https://doi.org/10.2533/000942905777676164

 VandeVondele, J; Hutter, J. 
 JOURNAL OF CHEMICAL PHYSICS, 118 (10), 4365-4369 (2003). 
 An efficient orbital transformation method for electronic structure
 calculations.
 https://doi.org/10.1063/1.1543154

 Martin,Richard L.. 
 The Journal of Chemical Physics, 118 (11), 4775-4777 (2003). 
 Natural transition orbitals.
 https://doi.org/10.1063/1.1558471

 Lippert, G; Hutter, J; Parrinello, M. 
 THEORETICAL CHEMISTRY ACCOUNTS, 103 (2), 124-140 (1999). 
 The Gaussian and augmented-plane-wave density functional method for ab
 initio molecular dynamics simulations.
 https://doi.org/10.1007/s002140050523

 Krack, M; Parrinello, M. 
 PHYSICAL CHEMISTRY CHEMICAL PHYSICS, 2 (10), 2105-2112 (2000). 
 All-electron ab-initio molecular dynamics.
 https://doi.org/10.1039/b001167n

 Martyna, GJ; Tuckerman, ME. 
 JOURNAL OF CHEMICAL PHYSICS, 110 (6), 2810-2821 (1999). 
 A reciprocal space based method for treating long range interactions in
 ab initio and force-field-based calculations in clusters.
 https://doi.org/10.1063/1.477923

 BECKE, AD. PHYSICAL REVIEW A, 38 (6), 3098-3100 (1988). 
 DENSITY-FUNCTIONAL EXCHANGE-ENERGY APPROXIMATION WITH CORRECT
 ASYMPTOTIC-BEHAVIOR.
 https://doi.org/10.1103/PhysRevA.38.3098

 LEE, CT; YANG, WT; PARR, RG. 
 PHYSICAL REVIEW B, 37 (2), 785-789 (1988). 
 DEVELOPMENT OF THE COLLE-SALVETTI CORRELATION-ENERGY FORMULA INTO A
 FUNCTIONAL OF THE ELECTRON-DENSITY.
 https://doi.org/10.1103/PhysRevB.37.785

 VOSKO, SH; WILK, L; NUSAIR, M. 
 CANADIAN JOURNAL OF PHYSICS, 58 (8), 1200-1211 (1980). 
 ACCURATE SPIN-DEPENDENT ELECTRON LIQUID CORRELATION ENERGIES FOR LOCAL
 SPIN-DENSITY CALCULATIONS - A CRITICAL ANALYSIS.
 https://doi.org/10.1139/p80-159


 -------------------------------------------------------------------------------
 -                                                                             -
 -                                T I M I N G                                  -
 -                                                                             -
 -------------------------------------------------------------------------------
 SUBROUTINE                       CALLS  ASD         SELF TIME        TOTAL TIME
                                MAXIMUM       AVERAGE  MAXIMUM  AVERAGE  MAXIMUM
 CP2K                                 1  1.0    0.021    0.033  199.746  199.750
 qs_forces                            1  2.0    0.001    0.001  198.718  198.719
 qs_energies                          1  3.0    0.000    0.000  140.202  140.203
 qs_energies_properties               1  4.0    0.000    0.000  135.319  135.319
 tddfpt                               1  5.0    0.000    0.000  135.319  135.319
 tddfpt_energies                      1  6.0    0.000    0.000  111.980  111.980
 tddfpt_davidson_solver               2  7.0    0.005    0.051  111.265  111.265
 tddfpt_compute_Aop_evects           12  8.0    0.000    0.000  110.735  110.737
 fhxc_kernel                         12  9.0    0.005    0.006   77.013   77.015
 fft_wrap_pw1pw2                   3446 12.4    0.054    0.066   51.099   53.923
 fft_wrap_pw1pw2_200               2407 13.7    2.435    2.708   49.307   51.632
 excited_state_energy                 2  3.5    0.002    0.002   49.787   49.788
 integrate_four_center              275 10.7    3.754    4.740   41.556   41.626
 fft3d_ps                          3446 14.4   21.070   22.184   38.176   41.361
 response_equation                    1  4.0    0.000    0.000   35.428   35.428
 linres_solver                        1  5.0    0.007    0.097   35.392   35.392
 apply_op                            30  6.0    0.001    0.001   35.307   35.313
 integrate_four_center_main         275 11.7    0.106    0.270   32.693   33.836
 integrate_four_center_bin        33887 12.7   32.587   33.738   32.587   33.738
 tddfpt_apply_hfx                    12  9.0    0.002    0.002   33.566   33.567
 tddft_hfx_matrix                   240 10.0    0.006    0.006   32.801   32.856
 derivatives_four_center              4  8.5    0.007    0.018   31.173   31.751
 derivatives_four_center_main         4  9.5    0.087    0.299   31.121   31.700
 derivatives_four_center_bin        556 10.4   28.325   31.029   28.325   31.029
 prepare_gapw_den                   192  9.1    0.005    0.005   30.458   30.607
 xc_pw_derive                      1272 12.5    0.012    0.013   28.957   29.750
 tddfpt_forces_main                   1  6.0    0.000    0.000   23.256   23.256
 tddfpt_forces                        1  7.0    0.000    0.000   22.192   22.192
 tddfpt_apply_xc_analytic           120 10.0    0.811    0.885   21.596   21.757
 tddfpt_force_direct                  1  8.0    0.000    0.000   21.670   21.670
 tddfpt_kernel_force                  1  9.0    0.000    0.000   21.660   21.660
 fhxc_force                           1 10.0    0.001    0.001   21.660   21.660
 apply_op_2_dft                      29  7.0    0.002    0.002   20.608   20.639
 xc_pw_divergence                   196 12.4    0.006    0.007   17.680   18.392
 calculate_rho0_atom                564 10.1   17.012   17.785   17.012   17.785
 calculate_rho_elec                 186 10.1    0.323    0.351   17.558   17.563
 qs_rho_update_rho_low              181  9.1    0.002    0.002   17.539   17.542
 tddfpt_apply_coulomb               120 10.0    0.002    0.002   13.793   15.641
 xc_calc_2nd_deriv_analytical       787 11.3    1.349    1.483   15.274   15.370
 response_force                       1  4.0    0.006    0.008   14.358   14.358
 density_rs2pw                      186 11.1    0.008    0.009   12.861   13.353
 rebuild_ks_matrix                    2  5.5    0.000    0.000   13.210   13.210
 qs_ks_build_kohn_sham_matrix         2  6.5    0.001    0.001   13.210   13.210
 mp_alltoall_z22v                  3446 16.4    9.365   12.770    9.365   12.770
 integrate_v_rspace                 160  9.5    0.003    0.004   12.058   12.694
 hfx_ks_matrix                        2  7.5    0.000    0.000   11.888   11.896
 yz_to_x                           1743 15.6    3.163    3.505    8.984   11.735
 qs_fxc_analytic                     30  8.0    0.002    0.002   10.133   10.309
 potential_pw2rs                    160 10.5    0.019    0.021    9.187    9.818
 xc_rho_set_and_dset_create          77 12.7    0.873    1.009    8.464    9.716
 qs_vxc_create                       45 12.7    0.001    0.001    8.980    8.987
 xc_vxc_pw_create                    45 13.7    0.110    0.126    8.979    8.986
 x_to_yz                           1703 15.2    4.517    5.097    8.061    8.857
 qs_ks_update_qs_env_forces           1  3.0    0.000    0.000    8.679    8.679
 qs_fgxc_gdiff                        1 11.0    0.000    0.000    8.537    8.538
 qs_fxc_fdiff                         7 12.0    0.001    0.001    8.512    8.513
 pw_poisson_solve                   157 10.3    0.003    0.004    5.701    7.618
 put_rho0_on_grid                   188 10.1    0.353    0.413    7.349    7.513
 transfer_rs2pw                     933 11.9    0.012    0.013    6.939    7.435
 xc_calc_2nd_deriv                   31  8.9    0.160    0.225    6.551    7.170
 integrate_vhg0_rspace              156 10.3    1.711    1.836    7.114    7.125
 transfer_pw2rs                     797 11.4    0.008    0.009    6.695    6.717
 mp_sum_d                          1697  8.5    4.083    6.390    4.083    6.390
 calculate_xc_2nd_deriv_atom        152  9.6    0.297    0.821    2.210    6.174
 transfer_rs2pw_200                 375 12.6    2.385    2.568    5.252    5.716
 pw_integral_ab                     157 11.3    0.487    0.616    3.480    5.497
 gaVxcgb_GC                         326 10.6    1.926    5.367    1.926    5.367
 calculate_rho_atom                 576 10.1    3.151    5.358    3.151    5.359
 grid_collocate_task_list           186 11.1    4.212    5.209    4.212    5.209
 transfer_pw2rs_200                 317 12.4    2.217    2.249    5.063    5.134
 mp_sync                           1439 12.4    2.433    4.990    2.433    4.990
 mp_waitany                       13840 13.5    4.451    4.873    4.451    4.873
 mp_sum_dv                         7346 10.1    3.014    4.830    3.014    4.830
 pw_gather_p                       1743 14.6    4.515    4.707    4.515    4.707
 scf_env_do_scf                       1  4.0    0.000    0.000    4.697    4.697
 xc_prep_2nd_deriv                   32  8.9    0.000    0.000    4.022    4.655
 init_scf_loop                        1  5.0    0.000    0.000    4.567    4.567
 qs_ks_update_qs_env                  3  6.0    0.000    0.000    4.531    4.531
 mp_sum_lv                           45  3.4    2.710    4.239    2.710    4.239
 apply_hfx                           29  7.0    0.001    0.001    4.169    4.181
 hfx_matrix                          29  8.0    0.001    0.001    4.166    4.179
 pw_scatter_p                      1703 14.2    3.985    4.115    3.985    4.115
 -------------------------------------------------------------------------------

 The number of warnings for this run is : 0
 
 -------------------------------------------------------------------------------
  **** **** ******  **  PROGRAM ENDED AT                 2024-12-07 05:16:50.671
 ***** ** ***  *** **   PROGRAM RAN ON                               nesh-clk593
 **    ****   ******    PROGRAM RAN BY                                  suphc356
 ***** **    ** ** **   PROGRAM PROCESS ID                                934494
  **** **  *******  **  PROGRAM STOPPED IN /gxfs_work/cau/suphc356/NEWTONX_proje
                                           ct/Pyrazin_molecule/CP2K_GAPW_B3LYP_d
                                           ef2_TZVP/IC_TDDFT_again/JOB_NAD
