 DBCSR| CPU Multiplication driver                                           XSMM (U)
 DBCSR| Multrec recursion limit                                              512 (U)
 DBCSR| Multiplication stack size                                           1000 (D)
 DBCSR| Maximum elements for images                                    UNLIMITED (U)
 DBCSR| Multiplicative factor virtual images                                   1 (U)
 DBCSR| Use multiplication densification                                       T (D)
 DBCSR| Multiplication size stacks                                             3 (U)
 DBCSR| Use memory pool for CPU allocation                                     F (U)
 DBCSR| Number of 3D layers                                               SINGLE (U)
 DBCSR| Use MPI memory allocation                                              F (U)
 DBCSR| Use RMA algorithm                                                      F (U)
 DBCSR| Use Communication thread                                               T (U)
 DBCSR| Communication thread load                                             87 (D)
 DBCSR| MPI: My process id                                                     0
 DBCSR| MPI: Number of processes                                              16
 DBCSR| OMP: Current number of threads                                         1
 DBCSR| OMP: Max number of threads                                             1
 DBCSR| Split modifier for TAS multiplication algorithm                  1.0E+00 (U)


  **** **** ******  **  PROGRAM STARTED AT               2025-01-09 13:14:03.574
 ***** ** ***  *** **   PROGRAM STARTED ON                           nesh-clk399
 **    ****   ******    PROGRAM STARTED BY                              suphc356
 ***** **    ** ** **   PROGRAM PROCESS ID                               1561265
  **** **  *******  **  PROGRAM STARTED IN /gxfs_work/cau/suphc356/NEWTONX_proje
                                           ct/Pyrazin_molecule/CP2K_GAPW_B3LYP_d
                                           ef2_TZVP/MOLDYN_BA_again/TRAJECTORIES
                                           /TRAJ194/TEMP

 CP2K| version string:                 CP2K version 2024.1 (Development Version)
 CP2K| source code revision number:                                  git:990486a
 CP2K| cp2kflags: omp libint fftw3 libxc libgrpp parallel mpi_f08 scalapack cosm
 CP2K|            a xsmm spglib mkl
 CP2K| is freely available from                            https://www.cp2k.org/
 CP2K| Program compiled at                          Mon Mar 11 08:48:45 CET 2024
 CP2K| Program compiled on                                           nesh-login2
 CP2K| Program compiled for                                                local
 CP2K| Data directory path                 /gxfs_work/cau/suphc356/cp2k_gcc/data
 CP2K| Input file name                                                  cp2k.inp

 GLOBAL| Force Environment number                                              1
 GLOBAL| Basis set file name                                     EMSL_BASIS_SETS
 GLOBAL| Potential file name                                      ALL_POTENTIALS
 GLOBAL| MM Potential file name                                     MM_POTENTIAL
 GLOBAL| Coordinate file name                                      __STD_INPUT__
 GLOBAL| Method name                                                        CP2K
 GLOBAL| Project name                                               testsuite_ad
 GLOBAL| Run type                                                   ENERGY_FORCE
 GLOBAL| FFT library                                                       FFTW3
 GLOBAL| Diagonalization library                                       ScaLAPACK
 GLOBAL| DGEMM library                                                      BLAS
 GLOBAL| Orthonormality check for eigenvectors                          DISABLED
 GLOBAL| Matrix multiplication library                                     COSMA
 GLOBAL| All-to-all communication in single precision                          F
 GLOBAL| FFTs using library dependent lengths                                  F
 GLOBAL| Grid backend                                                       AUTO
 GLOBAL| Global print level                                               MEDIUM
 GLOBAL| MPI I/O enabled                                                       T
 GLOBAL| Total number of message passing processes                            16
 GLOBAL| Number of threads for this process                                    1
 GLOBAL| This output is from process                                           0
 GLOBAL| Stack size for threads created by OpenMP (OMP_STACKSIZE)           256M
 GLOBAL| CPU model name                Intel(R) Xeon(R) Gold 6226R CPU @ 2.90GHz
 GLOBAL| CPUID                                                              1003
 GLOBAL| Compiled for CPUID                                                    0

 *** HINT in environment.F:920 :: The compiler target flags (generic) used ***
 *** to build this binary cannot exploit all extensions of this CPU model  ***
 *** (x86_avx512). Consider compiler target flags as part of FCFLAGS and   ***
 *** CFLAGS (ARCH file).                                                   ***


 MEMORY| system memory details [Kb]
 MEMORY|                        rank 0           min           max       average
 MEMORY| MemTotal            196683224     196683224     196683224     196683224
 MEMORY| MemFree             178270952     178270952     178270952     178270952
 MEMORY| Buffers                643560        643560        643560        643560
 MEMORY| Cached                1477856       1477856       1477856       1477856
 MEMORY| Slab                  2028892       2028892       2028892       2028892
 MEMORY| SReclaimable           225528        225528        225528        225528
 MEMORY| MemLikelyFree       180617896     180617896     180617896     180617896


 *** Fundamental physical constants (SI units) ***

 *** Literature: B. J. Mohr and B. N. Taylor,
 ***             CODATA recommended values of the fundamental physical
 ***             constants: 2006, Web Version 5.1
 ***             http://physics.nist.gov/constants

 Speed of light in vacuum [m/s]                             2.99792458000000E+08
 Magnetic constant or permeability of vacuum [N/A**2]       1.25663706143592E-06
 Electric constant or permittivity of vacuum [F/m]          8.85418781762039E-12
 Planck constant (h) [J*s]                                  6.62606896000000E-34
 Planck constant (h-bar) [J*s]                              1.05457162825177E-34
 Elementary charge [C]                                      1.60217648700000E-19
 Electron mass [kg]                                         9.10938215000000E-31
 Electron g factor [ ]                                     -2.00231930436220E+00
 Proton mass [kg]                                           1.67262163700000E-27
 Fine-structure constant                                    7.29735253760000E-03
 Rydberg constant [1/m]                                     1.09737315685270E+07
 Avogadro constant [1/mol]                                  6.02214179000000E+23
 Boltzmann constant [J/K]                                   1.38065040000000E-23
 Atomic mass unit [kg]                                      1.66053878200000E-27
 Bohr radius [m]                                            5.29177208590000E-11

 *** Conversion factors ***

 [u] -> [a.u.]                                              1.82288848426455E+03
 [Angstrom] -> [Bohr] = [a.u.]                              1.88972613288564E+00
 [a.u.] = [Bohr] -> [Angstrom]                              5.29177208590000E-01
 [a.u.] -> [s]                                              2.41888432650478E-17
 [a.u.] -> [fs]                                             2.41888432650478E-02
 [a.u.] -> [J]                                              4.35974393937059E-18
 [a.u.] -> [N]                                              8.23872205491840E-08
 [a.u.] -> [K]                                              3.15774647902944E+05
 [a.u.] -> [kJ/mol]                                         2.62549961709828E+03
 [a.u.] -> [kcal/mol]                                       6.27509468713739E+02
 [a.u.] -> [Pa]                                             2.94210107994716E+13
 [a.u.] -> [bar]                                            2.94210107994716E+08
 [a.u.] -> [atm]                                            2.90362800883016E+08
 [a.u.] -> [eV]                                             2.72113838565563E+01
 [a.u.] -> [Hz]                                             6.57968392072181E+15
 [a.u.] -> [1/cm] (wave numbers)                            2.19474631370540E+05
 [a.u./Bohr**2] -> [1/cm]                                   5.14048714338585E+03
 

 CELL_TOP| Volume [angstrom^3]:                                      2744.000000
 CELL_TOP| Vector a [angstrom    14.000     0.000     0.000   |a| =    14.000000
 CELL_TOP| Vector b [angstrom     0.000    14.000     0.000   |b| =    14.000000
 CELL_TOP| Vector c [angstrom     0.000     0.000    14.000   |c| =    14.000000
 CELL_TOP| Angle (b,c), alpha [degree]:                                90.000000
 CELL_TOP| Angle (a,c), beta  [degree]:                                90.000000
 CELL_TOP| Angle (a,b), gamma [degree]:                                90.000000
 CELL_TOP| Numerically orthorhombic:                                         YES
 CELL_TOP| Periodicity                                                      NONE

 CELL| Volume [angstrom^3]:                                          2744.000000
 CELL| Vector a [angstrom]:      14.000     0.000     0.000   |a| =    14.000000
 CELL| Vector b [angstrom]:       0.000    14.000     0.000   |b| =    14.000000
 CELL| Vector c [angstrom]:       0.000     0.000    14.000   |c| =    14.000000
 CELL| Angle (b,c), alpha [degree]:                                    90.000000
 CELL| Angle (a,c), beta  [degree]:                                    90.000000
 CELL| Angle (a,b), gamma [degree]:                                    90.000000
 CELL| Numerically orthorhombic:                                             YES
 CELL| Periodicity                                                          NONE

 CELL_REF| Volume [angstrom^3]:                                      2744.000000
 CELL_REF| Vector a [angstrom    14.000     0.000     0.000   |a| =    14.000000
 CELL_REF| Vector b [angstrom     0.000    14.000     0.000   |b| =    14.000000
 CELL_REF| Vector c [angstrom     0.000     0.000    14.000   |c| =    14.000000
 CELL_REF| Angle (b,c), alpha [degree]:                                90.000000
 CELL_REF| Angle (a,c), beta  [degree]:                                90.000000
 CELL_REF| Angle (a,b), gamma [degree]:                                90.000000
 CELL_REF| Numerically orthorhombic:                                         YES
 CELL_REF| Periodicity                                                      NONE

 *******************************************************************************
 *******************************************************************************
 **                                                                           **
 **     #####                         ##              ##                      **
 **    ##   ##            ##          ##              ##                      **
 **   ##     ##                       ##            ######                    **
 **   ##     ##  ##   ##  ##   #####  ##  ##   ####   ##    #####    #####    **
 **   ##     ##  ##   ##  ##  ##      ## ##   ##      ##   ##   ##  ##   ##   **
 **   ##  ## ##  ##   ##  ##  ##      ####     ###    ##   ######   ######    **
 **    ##  ###   ##   ##  ##  ##      ## ##      ##   ##   ##       ##        **
 **     #######   #####   ##   #####  ##  ##  ####    ##    #####   ##        **
 **           ##                                                    ##        **
 **                                                                           **
 **                                                ... make the atoms dance   **
 **                                                                           **
 **            Copyright (C) by CP2K developers group (2000-2024)             **
 **                      J. Chem. Phys. 152, 194103 (2020)                    **
 **                                                                           **
 *******************************************************************************

 DFT| Spin restricted Kohn-Sham (RKS) calculation                            RKS
 DFT| Multiplicity                                                             1
 DFT| Number of spin states                                                    1
 DFT| Charge                                                                   0
 DFT| Self-interaction correction (SIC)                                       NO
 DFT| Cutoffs: density                                              1.000000E-10
 DFT|          gradient                                             1.000000E-10
 DFT|          tau                                                  1.000000E-10
 DFT|          cutoff_smoothing_range                               0.000000E+00
 DFT| XC density smoothing                                                  NONE
 DFT| XC derivatives                                                          PW

 FUNCTIONAL| BECKE88:
 FUNCTIONAL| A. Becke, Phys. Rev. A 38, 3098 (1988) {LDA version}               
 FUNCTIONAL| LYP:
 FUNCTIONAL| C. Lee, W. Yang, R.G. Parr, Phys. Rev. B, 37, 785 (1988) {LDA versi
 FUNCTIONAL| on}                                                                
 FUNCTIONAL| VWN:
 FUNCTIONAL| S. H. Vosko, L. Wilk and M. Nusair, Can. J. Phys. 58, 1200 (1980) {
 FUNCTIONAL| LDA version}                                                       
 FUNCTIONAL| XALPHA:
 FUNCTIONAL| Dirac/Slater local exchange; parameter=  0.666 {LDA}               

 vdW POTENTIAL|                                                   Pair Potential
 vdW POTENTIAL|          DFT-D3 (Version 3.1)
 vdW POTENTIAL|          Potential Form: S. Grimme et al, JCP 132: 154104 (2010)
 vdW POTENTIAL|          Zero Damping
 vdW POTENTIAL|          Cutoff Radius [Bohr]:                             37.79
 vdW POTENTIAL|          s6 Scaling Factor:                               1.0000
 vdW POTENTIAL|          sr6 Scaling Factor:                              1.2610
 vdW POTENTIAL|          s8 Scaling Factor:                               1.7030
 vdW POTENTIAL|          Cutoff for CN calculation:                   0.1000E-05

 QS| Method:                                                                GAPW
 QS| Density plane wave grid type                        NON-SPHERICAL FULLSPACE
 QS| Number of grid levels:                                                    4
 QS| Density cutoff [a.u.]:                                                200.0
 QS| Multi grid cutoff [a.u.]: 1) grid level                               200.0
 QS|                           2) grid level                                66.7
 QS|                           3) grid level                                22.2
 QS|                           4) grid level                                 7.4
 QS| Grid level progression factor:                                          3.0
 QS| Relative density cutoff [a.u.]:                                        30.0
 QS| Interaction thresholds: eps_pgf_orb:                                1.0E-07
 QS|                         eps_filter_matrix:                          0.0E+00
 QS|                         eps_core_charge:                            1.0E-16
 QS|                         eps_rho_gspace:                             1.0E-14
 QS|                         eps_rho_rspace:                             1.0E-14
 QS|                         eps_gvg_rspace:                             1.0E-07
 QS|                         eps_ppl:                                    1.0E-02
 QS|                         eps_ppnl:                                   1.0E-09
 QS| GAPW|      One center basis extended with primitives (small:s)
 QS| GAPW|                   eps_fit:                                    1.0E-04
 QS| GAPW|                   eps_iso:                                    1.0E-12
 QS| GAPW|                   eps_svd:                                    1.0E-08
 QS| GAPW|                   eps_cpc:                                    1.0E-14
 QS| GAPW|   atom-r-grid: quadrature:                                     GC_LOG
 QS| GAPW|      atom-s-grid:  max l :                                          6
 QS| GAPW|      max_l_rho0 :                                                   4


 ATOMIC KIND INFORMATION

  1. Atomic kind: n                                     Number of atoms:       2

     Orbital Basis Set                                        Ahlrichs-def2-TZVP

       Number of orbital shell sets:                                          11
       Number of orbital shells:                                              11
       Number of primitive Cartesian functions:                               20
       Number of Cartesian basis functions:                                   36
       Number of spherical basis functions:                                   31
       Norm type:                                                              2

       Normalised Cartesian orbitals:

                        Set   Shell   Orbital            Exponent    Coefficient

                          1       1    1s            19730.800647       0.695604
                                                      2957.895874       1.298610
                                                       673.221336       2.219088
                                                       190.682495       3.463661
                                                        62.295442       4.696756
                                                        22.654161       4.952251

                          2       1    1s                8.979148       2.388068
                                                         3.686300       0.733788

                          3       1    1s                0.846601       0.629027

                          4       1    1s                0.336471       0.314863

                          5       1    1s                0.136477       0.160031

                          6       1    1px              49.200381       2.126481
                                                        11.346791       2.327937
                                                         3.427397       2.048573
                                                         1.178553       1.260732
                          6       1    1py              49.200381       2.126481
                                                        11.346791       2.327937
                                                         3.427397       2.048573
                                                         1.178553       1.260732
                          6       1    1pz              49.200381       2.126481
                                                        11.346791       2.327937
                                                         3.427397       2.048573
                                                         1.178553       1.260732

                          7       1    1px               0.416422       0.476823
                          7       1    1py               0.416422       0.476823
                          7       1    1pz               0.416422       0.476823

                          8       1    1px               0.142608       0.124917
                          8       1    1py               0.142608       0.124917
                          8       1    1pz               0.142608       0.124917

                          9       1    1dx2              1.654000       3.970513
                          9       1    1dxy              1.654000       6.877130
                          9       1    1dxz              1.654000       6.877130
                          9       1    1dy2              1.654000       3.970513
                          9       1    1dyz              1.654000       6.877130
                          9       1    1dz2              1.654000       3.970513

                         10       1    1dx2              0.469000       0.437484
                         10       1    1dxy              0.469000       0.757744
                         10       1    1dxz              0.469000       0.757744
                         10       1    1dy2              0.469000       0.437484
                         10       1    1dyz              0.469000       0.757744
                         10       1    1dz2              0.469000       0.437484

                         11       1    1fx3              1.093000       1.798249
                         11       1    1fx2y             1.093000       4.021007
                         11       1    1fx2z             1.093000       4.021007
                         11       1    1fxy2             1.093000       4.021007
                         11       1    1fxyz             1.093000       6.964588
                         11       1    1fxz2             1.093000       4.021007
                         11       1    1fy3              1.093000       1.798249
                         11       1    1fy2z             1.093000       4.021007
                         11       1    1fyz2             1.093000       4.021007
                         11       1    1fz3              1.093000       1.798249

       Atomic covalent radius [Angstrom]:                                  0.750

       Atomic van der Waals radius [Angstrom]:                             1.550

     The atoms of this atomic kind are PAW atoms (GAPW):
       Hard Gaussian function radius:                                      1.400
       Rho0 radius:                                                        1.400
       Maximum GTO radius used for PAW projector construction:            24.566

     GAPW Soft Basis Set                                 Ahlrichs-def2-TZVP_soft

       Number of orbital shell sets:                                          11
       Number of orbital shells:                                              11
       Number of primitive Cartesian functions:                               11
       Number of Cartesian basis functions:                                   36
       Number of spherical basis functions:                                   31
       Norm type:                                                              2

       Normalised Cartesian orbitals:

                        Set   Shell   Orbital            Exponent    Coefficient

                          1       1    1s         

                          2       1    1s                3.686300       0.733788

                          3       1    1s                0.846601       0.629027

                          4       1    1s                0.336471       0.314863

                          5       1    1s                0.136477       0.160031

                          6       1    1px               3.427397       2.048573
                                                         1.178553       1.260732
                          6       1    1py               3.427397       2.048573
                                                         1.178553       1.260732
                          6       1    1pz               3.427397       2.048573
                                                         1.178553       1.260732

                          7       1    1px               0.416422       0.476823
                          7       1    1py               0.416422       0.476823
                          7       1    1pz               0.416422       0.476823

                          8       1    1px               0.142608       0.124917
                          8       1    1py               0.142608       0.124917
                          8       1    1pz               0.142608       0.124917

                          9       1    1dx2              1.654000       3.970513
                          9       1    1dxy              1.654000       6.877130
                          9       1    1dxz              1.654000       6.877130
                          9       1    1dy2              1.654000       3.970513
                          9       1    1dyz              1.654000       6.877130
                          9       1    1dz2              1.654000       3.970513

                         10       1    1dx2              0.469000       0.437484
                         10       1    1dxy              0.469000       0.757744
                         10       1    1dxz              0.469000       0.757744
                         10       1    1dy2              0.469000       0.437484
                         10       1    1dyz              0.469000       0.757744
                         10       1    1dz2              0.469000       0.437484

                         11       1    1fx3              1.093000       1.798249
                         11       1    1fx2y             1.093000       4.021007
                         11       1    1fx2z             1.093000       4.021007
                         11       1    1fxy2             1.093000       4.021007
                         11       1    1fxyz             1.093000       6.964588
                         11       1    1fxz2             1.093000       4.021007
                         11       1    1fy3              1.093000       1.798249
                         11       1    1fy2z             1.093000       4.021007
                         11       1    1fyz2             1.093000       4.021007
                         11       1    1fz3              1.093000       1.798249

     AE Potential information for                                            ALL

       Description:                                       All-electron potential
                                          Krack, Parrinello, PCCP 2, 2105 (2000)

       Gaussian exponent of the core charge distribution:               5.979100
       Electronic configuration (s p d ...):                           4   3   0

  2. Atomic kind: c                                     Number of atoms:       4

     Orbital Basis Set                                        Ahlrichs-def2-TZVP

       Number of orbital shell sets:                                          11
       Number of orbital shells:                                              11
       Number of primitive Cartesian functions:                               20
       Number of Cartesian basis functions:                                   36
       Number of spherical basis functions:                                   31
       Norm type:                                                              2

       Normalised Cartesian orbitals:

                        Set   Shell   Orbital            Exponent    Coefficient

                          1       1    1s            13575.349682       0.543591
                                                      2035.233368       1.014554
                                                       463.225624       1.731573
                                                       131.200196       2.691038
                                                        42.853016       3.604455
                                                        15.584186       3.702556

                          2       1    1s                6.206714       1.838354
                                                         2.576490       0.544758

                          3       1    1s                0.576963       0.471815

                          4       1    1s                0.229728       0.236494

                          5       1    1s                0.095164       0.122114

                          6       1    1px              34.697232       1.359665
                                                         7.958262       1.451259
                                                         2.378083       1.270923
                                                         0.814332       0.802572
                          6       1    1py              34.697232       1.359665
                                                         7.958262       1.451259
                                                         2.378083       1.270923
                                                         0.814332       0.802572
                          6       1    1pz              34.697232       1.359665
                                                         7.958262       1.451259
                                                         2.378083       1.270923
                                                         0.814332       0.802572

                          7       1    1px               0.288875       0.301876
                          7       1    1py               0.288875       0.301876
                          7       1    1pz               0.288875       0.301876

                          8       1    1px               0.100568       0.080727
                          8       1    1py               0.100568       0.080727
                          8       1    1pz               0.100568       0.080727

                          9       1    1dx2              1.097000       1.935401
                          9       1    1dxy              1.097000       3.352214
                          9       1    1dxz              1.097000       3.352214
                          9       1    1dy2              1.097000       1.935401
                          9       1    1dyz              1.097000       3.352214
                          9       1    1dz2              1.097000       1.935401

                         10       1    1dx2              0.318000       0.221644
                         10       1    1dxy              0.318000       0.383899
                         10       1    1dxz              0.318000       0.383899
                         10       1    1dy2              0.318000       0.221644
                         10       1    1dyz              0.318000       0.383899
                         10       1    1dz2              0.318000       0.221644

                         11       1    1fx3              0.761000       0.796288
                         11       1    1fx2y             0.761000       1.780553
                         11       1    1fx2z             0.761000       1.780553
                         11       1    1fxy2             0.761000       1.780553
                         11       1    1fxyz             0.761000       3.084008
                         11       1    1fxz2             0.761000       1.780553
                         11       1    1fy3              0.761000       0.796288
                         11       1    1fy2z             0.761000       1.780553
                         11       1    1fyz2             0.761000       1.780553
                         11       1    1fz3              0.761000       0.796288

       Atomic covalent radius [Angstrom]:                                  0.770

       Atomic van der Waals radius [Angstrom]:                             1.700

     The atoms of this atomic kind are PAW atoms (GAPW):
       Hard Gaussian function radius:                                      1.520
       Rho0 radius:                                                        1.520
       Maximum GTO radius used for PAW projector construction:            24.566

     GAPW Soft Basis Set                                 Ahlrichs-def2-TZVP_soft

       Number of orbital shell sets:                                          11
       Number of orbital shells:                                              11
       Number of primitive Cartesian functions:                               11
       Number of Cartesian basis functions:                                   36
       Number of spherical basis functions:                                   31
       Norm type:                                                              2

       Normalised Cartesian orbitals:

                        Set   Shell   Orbital            Exponent    Coefficient

                          1       1    1s         

                          2       1    1s                2.576490       0.544758

                          3       1    1s                0.576963       0.471815

                          4       1    1s                0.229728       0.236494

                          5       1    1s                0.095164       0.122114

                          6       1    1px               2.378083       1.270923
                                                         0.814332       0.802572
                          6       1    1py               2.378083       1.270923
                                                         0.814332       0.802572
                          6       1    1pz               2.378083       1.270923
                                                         0.814332       0.802572

                          7       1    1px               0.288875       0.301876
                          7       1    1py               0.288875       0.301876
                          7       1    1pz               0.288875       0.301876

                          8       1    1px               0.100568       0.080727
                          8       1    1py               0.100568       0.080727
                          8       1    1pz               0.100568       0.080727

                          9       1    1dx2              1.097000       1.935401
                          9       1    1dxy              1.097000       3.352214
                          9       1    1dxz              1.097000       3.352214
                          9       1    1dy2              1.097000       1.935401
                          9       1    1dyz              1.097000       3.352214
                          9       1    1dz2              1.097000       1.935401

                         10       1    1dx2              0.318000       0.221644
                         10       1    1dxy              0.318000       0.383899
                         10       1    1dxz              0.318000       0.383899
                         10       1    1dy2              0.318000       0.221644
                         10       1    1dyz              0.318000       0.383899
                         10       1    1dz2              0.318000       0.221644

                         11       1    1fx3              0.761000       0.796288
                         11       1    1fx2y             0.761000       1.780553
                         11       1    1fx2z             0.761000       1.780553
                         11       1    1fxy2             0.761000       1.780553
                         11       1    1fxyz             0.761000       3.084008
                         11       1    1fxz2             0.761000       1.780553
                         11       1    1fy3              0.761000       0.796288
                         11       1    1fy2z             0.761000       1.780553
                         11       1    1fyz2             0.761000       1.780553
                         11       1    1fz3              0.761000       0.796288

     AE Potential information for                                            ALL

       Description:                                       All-electron potential
                                          Krack, Parrinello, PCCP 2, 2105 (2000)

       Gaussian exponent of the core charge distribution:               4.109048
       Electronic configuration (s p d ...):                           4   2   0

  3. Atomic kind: h                                     Number of atoms:       4

     Orbital Basis Set                                        Ahlrichs-def2-TZVP

       Number of orbital shell sets:                                           4
       Number of orbital shells:                                               4
       Number of primitive Cartesian functions:                                6
       Number of Cartesian basis functions:                                    6
       Number of spherical basis functions:                                    6
       Norm type:                                                              2

       Normalised Cartesian orbitals:

                        Set   Shell   Orbital            Exponent    Coefficient

                          1       1    1s               34.061341       0.255630
                                                         5.123575       0.461360
                                                         1.164663       0.681121

                          2       1    1s                0.327230       0.308355

                          3       1    1s                0.103072       0.129648

                          4       1    1px               0.800000       1.078456
                          4       1    1py               0.800000       1.078456
                          4       1    1pz               0.800000       1.078456

       Atomic covalent radius [Angstrom]:                                  0.320

       Atomic van der Waals radius [Angstrom]:                             1.090

     The atoms of this atomic kind are PAW atoms (GAPW):
       Hard Gaussian function radius:                                      1.000
       Rho0 radius:                                                        1.000
       Maximum GTO radius used for PAW projector construction:            24.566

     GAPW Soft Basis Set                                 Ahlrichs-def2-TZVP_soft

       Number of orbital shell sets:                                           4
       Number of orbital shells:                                               4
       Number of primitive Cartesian functions:                                5
       Number of Cartesian basis functions:                                    6
       Number of spherical basis functions:                                    6
       Norm type:                                                              2

       Normalised Cartesian orbitals:

                        Set   Shell   Orbital            Exponent    Coefficient

                          1       1    1s                5.123575       0.461360
                                                         1.164663       0.681121

                          2       1    1s                0.327230       0.308355

                          3       1    1s                0.103072       0.129648

                          4       1    1px               0.800000       1.078456
                          4       1    1py               0.800000       1.078456
                          4       1    1pz               0.800000       1.078456

     AE Potential information for                                            ALL

       Description:                                       All-electron potential
                                          Krack, Parrinello, PCCP 2, 2105 (2000)

       Gaussian exponent of the core charge distribution:              12.500000
       Electronic configuration (s p d ...):                           1   0   0


 MOLECULE KIND INFORMATION


 All atoms are their own molecule, skipping detailed information


 TOTAL NUMBERS AND MAXIMUM NUMBERS

  Total number of            - Atomic kinds:                                   3
                             - Atoms:                                         10
                             - Shell sets:                                    82
                             - Shells:                                        82
                             - Primitive Cartesian functions:                144
                             - Cartesian basis functions:                    240
                             - Spherical basis functions:                    210

  Maximum angular momentum of the orbital basis functions:                     3


 MODULE QUICKSTEP: ATOMIC COORDINATES IN ANGSTROM

   Atom Kind Element         X             Y             Z       Z(eff)     Mass
      1    1 n     7      7.112338      8.147919      7.651549   7.0000  14.0067
      2    1 n     7      7.157324      5.818830      6.424953   7.0000  14.0067
      3    2 c     6      7.054790      7.009901      8.364418   6.0000  12.0107
      4    2 c     6      7.100839      5.720857      7.804515   6.0000  12.0107
      5    2 c     6      7.043463      8.207145      6.186957   6.0000  12.0107
      6    2 c     6      7.094317      6.961472      5.716923   6.0000  12.0107
      7    3 h     1      7.237601      7.231925      9.312387   1.0000   1.0079
      8    3 h     1      7.255480      4.831301      8.341665   1.0000   1.0079
      9    3 h     1      7.097034      9.168699      5.837767   1.0000   1.0079
     10    3 h     1      6.744520      7.033784      4.687613   1.0000   1.0079



 SCF PARAMETERS         Density guess:                                   RESTART
                        --------------------------------------------------------
                        max_scf:                                              50
                        max_scf_history:                                       0
                        max_diis:                                              4
                        --------------------------------------------------------
                        eps_scf:                                        1.00E-08
                        eps_scf_history:                                0.00E+00
                        eps_diis:                                       1.00E-01
                        eps_eigval:                                     1.00E-05
                        --------------------------------------------------------
                        level_shift [a.u.]:                             0.000000
                        --------------------------------------------------------
                        Outer loop SCF in use 
                        No variables optimised in outer loop
                        eps_scf                                         1.00E-08
                        max_scf                                              900
                        No outer loop optimization
                        step_size                                       5.00E-01

 PW_GRID| Information for grid number                                          1
 PW_GRID| Grid distributed over                                    16 processors
 PW_GRID| Real space group dimensions                                    16    1
 PW_GRID| the grid is blocked:                                                NO
 PW_GRID| Cutoff [a.u.]                                                    400.0
 PW_GRID| spherical cutoff:                                                   NO
 PW_GRID|   Bounds   1           -120     119                Points:         240
 PW_GRID|   Bounds   2           -120     119                Points:         240
 PW_GRID|   Bounds   3           -120     119                Points:         240
 PW_GRID| Volume element (a.u.^3)  0.1340E-02     Volume (a.u.^3)     18517.4301
 PW_GRID| Grid span                                                    FULLSPACE
 PW_GRID|   Distribution                         Average         Max         Min
 PW_GRID|   G-Vectors                           864000.0      864000      864000
 PW_GRID|   G-Rays                                3600.0        3600        3600
 PW_GRID|   Real Space Points                   864000.0      864000      864000

 PW_GRID| Information for grid number                                          2
 PW_GRID| Number of the reference grid                                         1
 PW_GRID| Grid distributed over                                    16 processors
 PW_GRID| Real space group dimensions                                    16    1
 PW_GRID| the grid is blocked:                                                NO
 PW_GRID| Cutoff [a.u.]                                                    200.0
 PW_GRID| spherical cutoff:                                                   NO
 PW_GRID|   Bounds   1            -90      89                Points:         180
 PW_GRID|   Bounds   2            -90      89                Points:         180
 PW_GRID|   Bounds   3            -90      89                Points:         180
 PW_GRID| Volume element (a.u.^3)  0.3175E-02     Volume (a.u.^3)     18517.4301
 PW_GRID| Grid span                                                    FULLSPACE
 PW_GRID|   Distribution                         Average         Max         Min
 PW_GRID|   G-Vectors                           364500.0      364680      364320
 PW_GRID|   G-Rays                                2025.0        2026        2024
 PW_GRID|   Real Space Points                   364500.0      388800      356400

 PW_GRID| Information for grid number                                          3
 PW_GRID| Number of the reference grid                                         2
 PW_GRID| Grid distributed over                                    16 processors
 PW_GRID| Real space group dimensions                                    16    1
 PW_GRID| the grid is blocked:                                                NO
 PW_GRID| Cutoff [a.u.]                                                     66.7
 PW_GRID| spherical cutoff:                                                   NO
 PW_GRID|   Bounds   1            -50      49                Points:         100
 PW_GRID|   Bounds   2            -50      49                Points:         100
 PW_GRID|   Bounds   3            -50      49                Points:         100
 PW_GRID| Volume element (a.u.^3)  0.1852E-01     Volume (a.u.^3)     18517.4301
 PW_GRID| Grid span                                                    FULLSPACE
 PW_GRID|   Distribution                         Average         Max         Min
 PW_GRID|   G-Vectors                            62500.0       62600       62400
 PW_GRID|   G-Rays                                 625.0         626         624
 PW_GRID|   Real Space Points                    62500.0       70000       60000

 PW_GRID| Information for grid number                                          4
 PW_GRID| Number of the reference grid                                         2
 PW_GRID| Grid distributed over                                    16 processors
 PW_GRID| Real space group dimensions                                    16    1
 PW_GRID| the grid is blocked:                                                NO
 PW_GRID| Cutoff [a.u.]                                                     22.2
 PW_GRID| spherical cutoff:                                                   NO
 PW_GRID|   Bounds   1            -30      29                Points:          60
 PW_GRID|   Bounds   2            -30      29                Points:          60
 PW_GRID|   Bounds   3            -30      29                Points:          60
 PW_GRID| Volume element (a.u.^3)  0.8573E-01     Volume (a.u.^3)     18517.4301
 PW_GRID| Grid span                                                    FULLSPACE
 PW_GRID|   Distribution                         Average         Max         Min
 PW_GRID|   G-Vectors                            13500.0       13560       13440
 PW_GRID|   G-Rays                                 225.0         226         224
 PW_GRID|   Real Space Points                    13500.0       14400       10800

 PW_GRID| Information for grid number                                          5
 PW_GRID| Number of the reference grid                                         2
 PW_GRID| Grid distributed over                                    16 processors
 PW_GRID| Real space group dimensions                                    16    1
 PW_GRID| the grid is blocked:                                                NO
 PW_GRID| Cutoff [a.u.]                                                      7.4
 PW_GRID| spherical cutoff:                                                   NO
 PW_GRID|   Bounds   1            -18      17                Points:          36
 PW_GRID|   Bounds   2            -18      17                Points:          36
 PW_GRID|   Bounds   3            -18      17                Points:          36
 PW_GRID| Volume element (a.u.^3)  0.3969         Volume (a.u.^3)     18517.4301
 PW_GRID| Grid span                                                    FULLSPACE
 PW_GRID|   Distribution                         Average         Max         Min
 PW_GRID|   G-Vectors                             2916.0        2952        2880
 PW_GRID|   G-Rays                                  81.0          82          80
 PW_GRID|   Real Space Points                     2916.0        3888        2592

 POISSON| Solver                                          Martyna-Tuckerman (MT)
 POISSON| MT| Alpha                                                        7.000
 POISSON| MT| Relative cutoff                                                2.0
 POISSON| Periodicity                                                       NONE

 RS_GRID| Information for grid number                                          2
 RS_GRID|   Bounds   1            -90      89                Points:         180
 RS_GRID|   Bounds   2            -90      89                Points:         180
 RS_GRID|   Bounds   3            -90      89                Points:         180
 RS_GRID| Real space distribution over                                  4 groups
 RS_GRID| Real space distribution along direction                              2
 RS_GRID| Border size                                                         31
 RS_GRID| Real space distribution over                                  4 groups
 RS_GRID| Real space distribution along direction                              3
 RS_GRID| Border size                                                         31
 RS_GRID|   Distribution                         Average         Max         Min
 RS_GRID|   Planes                                 107.0         107         107
 RS_GRID|   Distribution                         Average         Max         Min
 RS_GRID|   Planes                                 107.0         107         107

 RS_GRID| Information for grid number                                          3
 RS_GRID|   Bounds   1            -50      49                Points:         100
 RS_GRID|   Bounds   2            -50      49                Points:         100
 RS_GRID|   Bounds   3            -50      49                Points:         100
 RS_GRID| Real space fully replicated
 RS_GRID| Group size                                                           1

 RS_GRID| Information for grid number                                          4
 RS_GRID|   Bounds   1            -30      29                Points:          60
 RS_GRID|   Bounds   2            -30      29                Points:          60
 RS_GRID|   Bounds   3            -30      29                Points:          60
 RS_GRID| Real space fully replicated
 RS_GRID| Group size                                                           1

 RS_GRID| Information for grid number                                          5
 RS_GRID|   Bounds   1            -18      17                Points:          36
 RS_GRID|   Bounds   2            -18      17                Points:          36
 RS_GRID|   Bounds   3            -18      17                Points:          36
 RS_GRID| Real space fully replicated
 RS_GRID| Group size                                                           1

  HFX_INFO| Replica ID:                                                        1
  HFX_INFO| FRACTION:                                               0.2000000000
  HFX_INFO| Interaction Potential:                                       COULOMB
  HFX_INFO| EPS_SCHWARZ:                                                 1.0E-10
  HFX_INFO| EPS_SCHWARZ_FORCES                                           1.0E-08
  HFX_INFO| EPS_STORAGE_SCALING:                                         1.0E+00
  HFX_INFO| NBINS:                                                            64
  HFX_INFO| BLOCK_SIZE:                                                        1
  HFX_INFO| Number of periodic shells considered:                           NONE
  HFX_INFO| Number of periodic cells considered:                            NONE


 Number of electrons:                                                         42
 Number of occupied orbitals:                                                 21
 Number of molecular orbitals:                                                21

 Number of orbital functions:                                                210
 Number of independent orbital functions:                                    210

 Extrapolation method: initial_guess


 SCF WAVEFUNCTION OPTIMIZATION

  ----------------------------------- OT ---------------------------------------
  Minimizer      : DIIS                : direct inversion
                                         in the iterative subspace
                                         using   7 DIIS vectors
                                         safer DIIS on
  Preconditioner : FULL_ALL            : diagonalization, state selective
  Precond_solver : DEFAULT
  stepsize       :    0.15000000                  energy_gap     :    0.08000000
  eps_taylor     :   0.10000E-15                  max_taylor     :             4
  ----------------------------------- OT ---------------------------------------

  Step     Update method      Time    Convergence         Total energy    Change
  ------------------------------------------------------------------------------

  HFX_MEM_INFO| Est. max. program size before HFX [MiB]:                     640
  HFX_MEM_INFO| Number of cart. primitive ERI's calculated:           1714036716
  HFX_MEM_INFO| Number of sph. ERI's calculated:                       315891631
  HFX_MEM_INFO| Number of sph. ERI's stored in-core:                   315891631
  HFX_MEM_INFO| Number of sph. ERI's stored on disk:                           0
  HFX_MEM_INFO| Number of sph. ERI's calculated on the fly:                    0
  HFX_MEM_INFO| Total memory consumption ERI's RAM [MiB]:                    938
  HFX_MEM_INFO| Whereof max-vals [MiB]:                                        5
  HFX_MEM_INFO| Total compression factor ERI's RAM:                         2.57
  HFX_MEM_INFO| Total memory consumption ERI's disk [MiB]:                     0
  HFX_MEM_INFO| Total compression factor ERI's disk:                        0.00
  HFX_MEM_INFO| Size of density/Fock matrix [MiB]:                             0
  HFX_MEM_INFO| Size of buffers [MiB]:                                         0
  HFX_MEM_INFO| Est. max. program size after HFX  [MiB]:                     697

     1 OT DIIS     0.15E+00    5.8     0.00935539      -264.1403118433 -2.64E+02
     2 OT DIIS     0.15E+00    1.0     0.00450575      -264.1786464210 -3.83E-02
     3 OT DIIS     0.15E+00    1.0     0.00292754      -264.1863912998 -7.74E-03
     4 OT DIIS     0.15E+00    1.0     0.00052494      -264.1887317255 -2.34E-03
     5 OT DIIS     0.15E+00    1.0     0.00021642      -264.1887881389 -5.64E-05
     6 OT DIIS     0.15E+00    1.0     0.00007018      -264.1888029660 -1.48E-05
     7 OT DIIS     0.15E+00    1.0     0.00002540      -264.1888053869 -2.42E-06
     8 OT DIIS     0.15E+00    1.0     0.00000948      -264.1888056949 -3.08E-07
     9 OT DIIS     0.15E+00    1.0     0.00000523      -264.1888057293 -3.45E-08
    10 OT DIIS     0.15E+00    1.0     0.00000184      -264.1888057382 -8.92E-09
    11 OT DIIS     0.15E+00    1.0     0.00000056      -264.1888057396 -1.39E-09
    12 OT DIIS     0.15E+00    1.0     0.00000029      -264.1888057398 -1.53E-10
    13 OT DIIS     0.15E+00    1.0     0.00000018      -264.1888057398 -2.45E-11
    14 OT DIIS     0.15E+00    1.0     0.00000006      -264.1888057398 -1.06E-11
    15 OT DIIS     0.15E+00    1.0     0.00000002      -264.1888057398  3.41E-13
    16 OT DIIS     0.15E+00    1.0     9.4985E-09      -264.1888057398 -8.36E-12

  *** SCF run converged in    16 steps ***


  Electronic density on regular grids:        -30.6487069325       11.3512930675
  Core density on regular grids:               42.0000000000       -0.0000000000
  Hard and soft densities (Lebedev):          -98.7085017428      -87.3572086583
  Total Rho_soft + Rho1_hard - Rho1_soft      -42.0000000170
  Total charge density (r-space):              -0.0000000170
  Total Rho_soft + Rho0_soft (g-space):        -0.0000000425

  Overlap energy of the core charge distribution:               0.00002475377222
  Self energy of the core charge distribution:               -217.69203579805162
  Core Hamiltonian energy:                                    -41.83826525908736
  Hartree energy:                                             109.75411511603571
  Exchange-correlation energy:                                -11.23517590053621
  Hartree-Fock Exchange energy:                                -7.06244015053604
  Dispersion energy:                                           -0.00378273585315

  GAPW| Exc from hard and soft atomic rho1:                   -18.55343131493283
  GAPW| local Eh = 1 center integrals:                        -77.55781445064855

  Total energy:                                              -264.18880573983779

  outer SCF iter =    1 RMS gradient =   0.95E-08 energy =       -264.1888057398
  outer SCF loop converged in   1 iterations or   16 steps


 !-----------------------------------------------------------------------------!
                     Mulliken Population Analysis

 #  Atom  Element  Kind  Atomic population                           Net charge
       1     n        1          7.248395                             -0.248395
       2     n        1          7.227704                             -0.227704
       3     c        2          6.028044                             -0.028044
       4     c        2          6.003242                             -0.003242
       5     c        2          6.018041                             -0.018041
       6     c        2          5.997741                              0.002259
       7     h        3          0.871635                              0.128365
       8     h        3          0.857289                              0.142711
       9     h        3          0.848125                              0.151875
      10     h        3          0.899784                              0.100216
 # Total charge                             42.000000                 -0.000000

 !-----------------------------------------------------------------------------!

 !-----------------------------------------------------------------------------!
                           Hirshfeld Charges

  #Atom  Element  Kind  Ref Charge     Population                    Net charge
      1       n      1       7.000          7.339                        -0.339
      2       n      1       7.000          7.299                        -0.299
      3       c      2       6.000          6.336                        -0.336
      4       c      2       6.000          6.309                        -0.309
      5       c      2       6.000          6.342                        -0.342
      6       c      2       6.000          6.334                        -0.334
      7       h      3       1.000          0.516                         0.484
      8       h      3       1.000          0.501                         0.499
      9       h      3       1.000          0.499                         0.501
     10       h      3       1.000          0.516                         0.484

  Total Charge                                                            0.009
 !-----------------------------------------------------------------------------!

 *******************************************************************************
 **                                                                           **
 **         ######## #######   #######   ######## #######  ########           **
 **            ##    ##     ## ##     ## ##       ##   ##     ##              **
 **            ##    ##     ## ##     ## ######   #######     ##              **
 **            ##    ##     ## ##     ## ##       ##          ##              **
 **            ##    #######   #######   ##       ##          ##              **
 **                                                                           **
 *******************************************************************************
 KERNEL|                                                                    FULL
 FUNCTIONAL| BECKE88:
 FUNCTIONAL| A. Becke, Phys. Rev. A 38, 3098 (1988) {LDA version}               
 FUNCTIONAL| LYP:
 FUNCTIONAL| C. Lee, W. Yang, R.G. Parr, Phys. Rev. B, 37, 785 (1988) {LDA versi
 FUNCTIONAL| on}                                                                
 FUNCTIONAL| VWN:
 FUNCTIONAL| S. H. Vosko, L. Wilk and M. Nusair, Can. J. Phys. 58, 1200 (1980) {
 FUNCTIONAL| LDA version}                                                       
 FUNCTIONAL| XALPHA:
 FUNCTIONAL| Dirac/Slater local exchange; parameter=  0.666 {LDA}               
 KERNEL|                                                          Exact Exchange
 KERNEL| Spin symmetry of excitations                                    Singlet
 TDDFPT| Number of states calculated                                           9
 TDDFPT| Number of Davidson iterations                                       100
 TDDFPT| Davidson iteration convergence                                0.367E-09
 TDDFPT| Max. number of Krylov space vectors                                5000
 TDDFPT| Molecular Orbitals:        Spin       AOs       Occ      Virt     Total
 TDDFPT|                               1       210        21       189       210
 
 -------------------------------------------------------------------------------
 -                            TDDFPT Initial Guess                             -
 -------------------------------------------------------------------------------
          State         Occupied      ->      Virtual          Excitation
          number         orbital              orbital          energy (eV)
 -------------------------------------------------------------------------------
             1               21                   22              4.41847
             2               21                   23              5.54143
             3               20                   22              5.60197
             4               19                   22              6.05261
             5               18                   22              6.48736
             6               20                   23              6.72494
             7               19                   23              7.17558
             8               18                   23              7.61033
             9               21                   24              8.20013

      Number of active states:                                       3969
 -------------------------------------------------------------------------------
 
 -------------------------------------------------------------------------------
 -                      TDDFPT WAVEFUNCTION OPTIMIZATION                       -
 -------------------------------------------------------------------------------

          Step            Time         Convergence           Conv. states
 -------------------------------------------------------------------------------

    State    Exc. energy (eV)      Convergence (eV)
        1       3.1932036            -1.2253E+00
        2       4.2395756            -1.3019E+00
        3       4.3126245            -1.2893E+00
        4       5.4207892            -6.3182E-01
        5       5.6025914            -8.8477E-01
        6       7.3744291             6.4949E-01
        7       7.5783699             4.0279E-01
        8       9.3324021             1.7221E+00
        9      10.0899402             1.8898E+00

             1            10.5          6.9449E-02                      0

    State    Exc. energy (eV)      Convergence (eV)
        1       3.1200046            -7.3199E-02
        2       4.1866422            -5.2933E-02
        3       4.2349968            -7.7628E-02
        4       5.3816604            -3.9129E-02
        5       5.4761026            -1.2649E-01
        6       6.4745133            -8.9992E-01
        7       7.3167461            -2.6162E-01
        8       8.3467294            -9.8567E-01
        9       8.3833144            -1.7066E+00

             2            10.5          6.2717E-02                      0

    State    Exc. energy (eV)      Convergence (eV)
        1       3.1172257            -2.7788E-03
        2       4.1821498            -4.4924E-03
        3       4.2309827            -4.0141E-03
        4       5.3792615            -2.3989E-03
        5       5.4709342            -5.1685E-03
        6       6.4341319            -4.0381E-02
        7       7.2986136            -1.8132E-02
        8       7.4568949            -8.8983E-01
        9       7.5497056            -8.3361E-01

             3            10.5          3.2701E-02                      0

    State    Exc. energy (eV)      Convergence (eV)
        1       3.1171240            -1.0169E-04
        2       4.1820361            -1.1372E-04
        3       4.2309133            -6.9424E-05
        4       5.3790308            -2.3069E-04
        5       5.4707679            -1.6629E-04
        6       6.4326073            -1.5246E-03
        7       7.2919504            -6.6632E-03
        8       7.3687921            -8.8103E-02
        9       7.4700820            -7.9624E-02

             4            10.5          3.2377E-03                      0

    State    Exc. energy (eV)      Convergence (eV)
        1       3.1171230            -1.0510E-06
        2       4.1820344            -1.6987E-06
        3       4.2309123            -9.7740E-07
        4       5.3790267            -4.1317E-06
        5       5.4707646            -3.2691E-06
        6       6.4325463            -6.0970E-05
        7       7.2885951            -3.3553E-03
        8       7.3455269            -2.3265E-02
        9       7.4517691            -1.8313E-02

             5            10.5          8.5498E-04                      0

    State    Exc. energy (eV)      Convergence (eV)
        1       3.1171230            -1.1937E-08
        2       4.1820344            -1.5456E-08
        3       4.2309123            -1.6453E-08
        4       5.3790266            -6.4082E-08
        5       5.4707645            -6.7724E-08
        6       6.4325445            -1.8172E-06
        7       7.2882677            -3.2746E-04
        8       7.3434598            -2.0671E-03
        9       7.4457818            -5.9874E-03

             6            10.5          2.2003E-04                      0

    State    Exc. energy (eV)      Convergence (eV)
        1       3.1171230            -1.1771E-10
        2       4.1820344            -1.8022E-10
        3       4.2309123            -2.0360E-10
        4       5.3790266            -1.1595E-09
        5       5.4707645            -1.0797E-09
        6       6.4325444            -3.9782E-08
        7       7.2882460            -2.1637E-05
        8       7.3433155            -1.4426E-04
        9       7.4451410            -6.4077E-04

             7            10.5          2.3548E-05                      5

    State    Exc. energy (eV)      Convergence (eV)
        1       3.1171230            -8.7498E-13
        2       4.1820344            -1.5574E-12
        3       4.2309123            -1.8028E-12
        4       5.3790266            -1.3416E-11
        5       5.4707645            -1.5431E-11
        6       6.4325444            -7.5804E-10
        7       7.2882454            -6.8664E-07
        8       7.3433106            -4.9040E-06
        9       7.4451100            -3.1028E-05

             8            10.5          1.1402E-06                      6

    State    Exc. energy (eV)      Convergence (eV)
        1       3.1171230            -1.3217E-14
        2       4.1820344            -1.5861E-14
        3       4.2309123            -1.1329E-14
        4       5.3790266            -1.4275E-13
        5       5.4707645            -1.3444E-13
        6       6.4325444            -9.8608E-12
        7       7.2882453            -1.8997E-08
        8       7.3433105            -8.3414E-08
        9       7.4451091            -8.2172E-07

             9            10.4          3.0198E-08                      6

    State    Exc. energy (eV)      Convergence (eV)
        1       3.1171230             0.0000E+00
        2       4.1820344            -4.5316E-15
        3       4.2309123            -9.0632E-15
        4       5.3790266            -5.2869E-15
        5       5.4707645             0.0000E+00
        6       6.4325444            -1.1631E-13
        7       7.2882453            -3.9431E-10
        8       7.3433105            -1.4439E-09
        9       7.4451091            -1.9325E-08

            10            10.5          7.1019E-10                      8

    State    Exc. energy (eV)      Convergence (eV)
        1       3.1171230             7.5527E-15
        2       4.1820344             2.2658E-15
        3       4.2309123             7.5527E-15
        4       5.3790266             3.7763E-15
        5       5.4707645            -1.5105E-15
        6       6.4325444            -8.3079E-15
        7       7.2882453            -7.6660E-12
        8       7.3433105            -3.1013E-11
        9       7.4451091            -4.9575E-10

            11            10.4          1.8218E-11                      9
 ------------------------- Restart Davidson iterations -------------------------

    State    Exc. energy (eV)      Convergence (eV)
        1       3.1171230             0.0000E+00
        2       4.1820344             2.2658E-15
        3       4.2309123             2.2658E-15
        4       5.3790266            -2.2658E-15
        5       5.4707645            -7.5527E-15
        6       6.4325444            -1.1329E-14
        7       7.2882453             8.4590E-14
        8       7.3433105             9.0632E-15
        9       7.4451091             9.0632E-15

            12            10.4          3.1086E-15                      9
 
 -------------------------------------------------------------------------------
 -  TDDFPT run converged in 12 iteration(s) 
 -------------------------------------------------------------------------------

 R-TDDFPT states of multiplicity 1
 Transition dipoles calculated using length formulation

         State    Excitation        Transition dipole (a.u.)        Oscillator
         number   energy (eV)       x           y           z     strength (a.u.)
         ------------------------------------------------------------------------
 TDDFPT|      1       3.11712   1.8872E-01  1.5870E-01 -8.7450E-02   5.22718E-03
 TDDFPT|      2       4.18203   1.2842E-01 -1.3197E-01 -7.0541E-02   3.98388E-03
 TDDFPT|      3       4.23091  -8.9095E-02 -2.8126E-02  1.3646E-02   9.24105E-04
 TDDFPT|      4       5.37903   1.0192E-02 -1.8402E-01  1.0685E-01   5.98104E-03
 TDDFPT|      5       5.47076   4.1349E-02 -4.1108E-01  4.3784E-01   4.85725E-02
 TDDFPT|      6       6.43254   4.4598E-02 -2.6856E-01  5.3451E-01   5.67045E-02
 TDDFPT|      7       7.28825  -2.2992E-02  3.1612E-01  1.4346E-01   2.16131E-02
 TDDFPT|      8       7.34331  -1.0582E-01  3.7786E-01 -4.5507E-02   2.80744E-02
 TDDFPT|      9       7.44511   1.0261E-01  4.6025E-02 -1.4450E-01   6.11571E-03

 TDDFPT : CheckSum  =  0.644759E+00
 
 -------------------------------------------------------------------------------
 -                            Excitation analysis                              -
 -------------------------------------------------------------------------------
        State             Occupied              Virtual             Excitation
        number             orbital              orbital             amplitude
 -------------------------------------------------------------------------------
             1   3.11712 eV
                                21                   22              -0.990144
                                19                   22               0.102950
             2   4.18203 eV
                                21                   23               0.866196
                                20                   22              -0.466201
                                19                   23              -0.111726
                                18                   22               0.088206
                                20                   23               0.058224
                                19                   22              -0.055139
             3   4.23091 eV
                                20                   22              -0.864732
                                21                   23              -0.478236
                                18                   22               0.099853
                                19                   22              -0.066085
             4   5.37903 eV
                                20                   23              -0.922286
                                19                   22               0.281983
                                19                   23              -0.207683
                                18                   23              -0.104115
                                18                   22              -0.085738
                                20                   22              -0.060698
             5   5.47076 eV
                                19                   22               0.667514
                                18                   23              -0.442156
                                18                   22              -0.397589
                                20                   23               0.351333
                                19                   23              -0.232511
                                20                   22              -0.078884
                                21                   22               0.067339
             6   6.43254 eV
                                18                   22               0.697562
                                19                   22               0.478217
                                19                   23               0.441287
                                18                   23              -0.121346
                                21                   28              -0.088869
                                21                   25               0.060360
                                21                   32               0.052443
                                20                   39               0.050061
             7   7.28825 eV
                                21                   24               0.831013
                                17                   22              -0.385631
                                18                   23              -0.232735
                                21                   25              -0.216573
                                21                   27               0.129267
                                18                   22               0.100331
                                19                   23              -0.092731
                                19                   22              -0.068334
                                16                   22              -0.061504
                                20                   24              -0.055450
             8   7.34331 eV
                                17                   22              -0.732044
                                21                   24              -0.504482
                                16                   22              -0.237175
                                19                   23              -0.206900
                                18                   23              -0.188241
                                21                   25              -0.133735
                                18                   22               0.126819
                                21                   26              -0.107120
                                19                   22              -0.073007
                                21                   27               0.059244
             9   7.44511 eV
                                21                   25              -0.708129
                                21                   27               0.354442
                                17                   22               0.341615
                                18                   23              -0.310583
                                21                   26              -0.269753
                                21                   24              -0.165856
                                16                   22               0.123507
                                19                   22              -0.103013
                                19                   23               0.092663
 -------------------------------------------------------------------------------
 
 -------------------------------------------------------------------------------
 -                            Natural Orbital analysis                         -
 -------------------------------------------------------------------------------
   STATE NR.      1             3.11712 eV
     Particle-Hole state: 1   Spin:1     Eigenvalue: 0.99417   Sum Eigv: 0.99417
   STATE NR.      2             4.18203 eV
     Particle-Hole state: 1   Spin:1     Eigenvalue: 0.76905   Sum Eigv: 0.76905
     Particle-Hole state: 2   Spin:1     Eigenvalue: 0.22934   Sum Eigv: 0.99839
   STATE NR.      3             4.23091 eV
     Particle-Hole state: 1   Spin:1     Eigenvalue: 0.76436   Sum Eigv: 0.76436
     Particle-Hole state: 2   Spin:1     Eigenvalue: 0.23410   Sum Eigv: 0.99846
   STATE NR.      4             5.37903 eV
     Particle-Hole state: 1   Spin:1     Eigenvalue: 0.90662   Sum Eigv: 0.90662
     Particle-Hole state: 2   Spin:1     Eigenvalue: 0.09128   Sum Eigv: 0.99790
   STATE NR.      5             5.47076 eV
     Particle-Hole state: 1   Spin:1     Eigenvalue: 0.61728   Sum Eigv: 0.61728
     Particle-Hole state: 2   Spin:1     Eigenvalue: 0.37375   Sum Eigv: 0.99102
   STATE NR.      6             6.43254 eV
     Particle-Hole state: 1   Spin:1     Eigenvalue: 0.75244   Sum Eigv: 0.75244
     Particle-Hole state: 2   Spin:1     Eigenvalue: 0.18277   Sum Eigv: 0.93521
     Particle-Hole state: 3   Spin:1     Eigenvalue: 0.03396   Sum Eigv: 0.96918
     Particle-Hole state: 4   Spin:1     Eigenvalue: 0.01079   Sum Eigv: 0.97997
   STATE NR.      7             7.28825 eV
     Particle-Hole state: 1   Spin:1     Eigenvalue: 0.76088   Sum Eigv: 0.76088
     Particle-Hole state: 2   Spin:1     Eigenvalue: 0.17339   Sum Eigv: 0.93427
     Particle-Hole state: 3   Spin:1     Eigenvalue: 0.05878   Sum Eigv: 0.99306
   STATE NR.      8             7.34331 eV
     Particle-Hole state: 1   Spin:1     Eigenvalue: 0.61779   Sum Eigv: 0.61779
     Particle-Hole state: 2   Spin:1     Eigenvalue: 0.29462   Sum Eigv: 0.91242
[...]
 # MPI messages exchanged                  154368
 MPI messages size (bytes):
  total size                         1.130583E+09
  min size                           0.000000E+00
  max size                          31.744000E+03
  average size                       7.323946E+03
 MPI breakdown and total messages size (bytes):
             size <=      128               88944                        0
       128 < size <=     8192               12288                 82559232
      8192 < size <=    32768               53136               1048023648
     32768 < size <=   131072                   0                        0
    131072 < size <=  4194304                   0                        0
   4194304 < size <= 16777216                   0                        0
  16777216 < size                               0                        0
 -------------------------------------------------------------------------------
 -                                                                             -
 -                      DBCSR MESSAGE PASSING PERFORMANCE                      -
 -                                                                             -
 -------------------------------------------------------------------------------
 ROUTINE             CALLS      AVE VOLUME [Bytes]
 MP_Bcast               28                     12.
 MP_Allreduce         6912                      8.
 MP_Alltoall         25857                   2774.
 MP_ISend            25724                   3456.
 MP_IRecv            25724                   3166.
 -------------------------------------------------------------------------------

 -------------------------------------------------------------------------------
 -                                                                             -
 -                                DBM STATISTICS                               -
 -                                                                             -
 -------------------------------------------------------------------------------
    M  x    N  x    K                                          COUNT     PERCENT
 -------------------------------------------------------------------------------

 -------------------------------------------------------------------------------
 -                                                                             -
 -                                GRID STATISTICS                              -
 -                                                                             -
 -------------------------------------------------------------------------------
 LP    KERNEL             BACKEND                              COUNT     PERCENT
 1     collocate ortho    CPU                                 240875      15.52%
 1     integrate ortho    CPU                                 198053      12.76%
 2     collocate ortho    CPU                                 195365      12.58%
 0     collocate ortho    CPU                                 167280      10.77%
 2     integrate ortho    CPU                                 164739      10.61%
 0     integrate ortho    CPU                                 133008       8.57%
 3     collocate ortho    CPU                                 132020       8.50%
 3     integrate ortho    CPU                                 112596       7.25%
 4     collocate ortho    CPU                                  56580       3.64%
 4     integrate ortho    CPU                                  50140       3.23%
 4     collocate general  CPU                                  19872       1.28%
 5     collocate ortho    CPU                                  17220       1.11%
 5     integrate ortho    CPU                                  15900       1.02%
 4     integrate general  CPU                                  15648       1.01%
 2     collocate general  CPU                                  13248       0.85%
 2     integrate general  CPU                                  10432       0.67%
 6     collocate ortho    CPU                                   4305       0.28%
 6     integrate ortho    CPU                                   4095       0.26%
 5     integrate general  CPU                                    384       0.02%
 3     integrate general  CPU                                    256       0.02%
 7     integrate ortho    CPU                                    168       0.01%
 0     collocate general  CPU                                    160       0.01%
 0     integrate general  CPU                                    160       0.01%
 -------------------------------------------------------------------------------

 MEMORY| Estimated peak process memory [MiB]                                1280

 -------------------------------------------------------------------------------
 ----                             MULTIGRID INFO                            ----
 -------------------------------------------------------------------------------
 count for grid        1:         109553          cutoff [a.u.]          200.00
 count for grid        2:          22507          cutoff [a.u.]           66.67
 count for grid        3:           8627          cutoff [a.u.]           22.22
 count for grid        4:           1858          cutoff [a.u.]            7.41
 total gridlevel count  :         142545

 -------------------------------------------------------------------------------
 -                                                                             -
 -                         MESSAGE PASSING PERFORMANCE                         -
 -                                                                             -
 -------------------------------------------------------------------------------

 ROUTINE             CALLS      AVE VOLUME [Bytes]
 MP_Group                5
 MP_Bcast             4693                1000919.
 MP_Allreduce        14770                 143055.
 MP_Sync              1432
 MP_Alltoall          4128               15018033.
 MP_SendRecv          9285                 233914.
 MP_ISendRecv        16110                 124342.
 MP_Wait             33580
 MP_comm_split          34
 MP_ISend            15047                 822485.
 MP_IRecv            15216                 813035.
 -------------------------------------------------------------------------------


 -------------------------------------------------------------------------------
 -                                                                             -
 -                           R E F E R E N C E S                               -
 -                                                                             -
 -------------------------------------------------------------------------------
 
 CP2K version 2024.1 (Development Version), the CP2K developers group (2024).
 CP2K is freely available from https://www.cp2k.org/ .

 Kuehne,Thomas D.; Iannuzzi,Marcella; Del Ben,Mauro;
 Rybkin,Vladimir V.; Seewald,Patrick; Stein,Frederick; Laino,Teodoro;
 Khaliullin,Rustam Z.; Schuett,Ole; Schiffmann,Florian; Golze,Dorothea;
 Wilhelm,Jan; Chulkov,Sergey; Bani-Hashemian,Mohammad Hossein;
 Weber,Valery; Borstnik,Urban; Taillefumier,Mathieu;
 Jakobovits,Alice Shoshana; Lazzaro,Alfio; Pabst,Hans; Mueller,Tiziano;
 Schade,Robert; Guidon,Manuel; Andermatt,Samuel; Holmberg,Nico;
 Schenter,Gregory K.; Hehn,Anna; Bussy,Augustin; Belleflamme,Fabian;
 Tabacchi,Gloria; Gloess,Andreas; Lass,Michael; Bethune,Iain;
 Mundy,Christopher J.; Plessl,Christian; Watkins,Matt;
 VandeVondele,Joost; Krack,Matthias; Hutter,Juerg. 
 The Journal of Chemical Physics, 152 (19), (2020). 
 CP2K: An electronic structure and molecular dynamics software package -
 Quickstep: Efficient and accurate electronic structure calculations.
 https://doi.org/10.1063/5.0007045

 Goerigk, Lars; Hansen, Andreas; Bauer, Christoph; Ehrlich, Stephan;
 Najibi, Asim; Grimme, Stefan. , 19 (48), (2017). 
 A look at the density functional theory zoo with the advanced GMTKN55 database
 for general main group thermochemistry, kinetics and noncovalent interactions.
 https://doi.org/10.1039/C7CP04913G

 Schuett, Ole; Messmer, Peter; Hutter, Juerg; VandeVondele, Joost. 
 Electronic Structure Calculations on Graphics Processing Units, John
 Wiley & Sons, Ltd, 173-190 (2016). 
 GPU-Accelerated Sparse Matrix-Matrix Multiplication for
 Linear Scaling Density Functional Theory.
 https://doi.org/10.1002/9781118670712.ch8

 Heinecke, A; Henry, G; Hutchinson, M; Pabst, H. 
 Proceedings of Intl. Supercomputing Conference, 981-991 (2016). 
 LIBXSMM: Accelerating Small Matrix Multiplications
 by Runtime Code Generation.
 https://doi.org/10.1109/SC.2016.83

 Borstnik, U; VandeVondele, J; Weber, V; Hutter, J. 
 PARALLEL COMPUTING, 40 (5-6), 47-58 (2014). 
 Sparse matrix multiplication: The distributed block-compressed sparse
 row library.
 https://doi.org/10.1016/j.parco.2014.03.012

 Hutter, J; Iannuzzi, M; Schiffmann, F; VandeVondele, J. 
 WIREs Comput Mol Sci., 4 (1), 15-25 (2014). 
 CP2K: atomistic simulations of condensed matter systems.
 https://doi.org/10.1002/wcms.1159

 Grimme, S; Ehrlich, S; Goerigk, L. 
 JOURNAL OF COMPUTATIONAL CHEMISTRY, 32, 1456 (2011). 
 Effect of the damping function in dispersion corrected density functional theory.
 https://doi.org/10.1002/jcc.21759

 Grimme, S; Antony, J; Ehrlich, S; Krieg, H. 
 JOURNAL OF CHEMICAL PHYSICS, 132 (15), 154104 (2010). 
 A consistent and accurate ab initio parametrization of density
 functional dispersion correction (DFT-D) for the 94 elements H-Pu.
 https://doi.org/10.1063/1.3382344

 Guidon, M; Hutter, J; VandeVondele, J. 
 JOURNAL OF CHEMICAL THEORY AND COMPUTATION, 5 (11), 3010-3021 (2009). 
 Robust Periodic Hartree-Fock Exchange for Large-Scale Simulations Using
 Gaussian Basis Sets.
 https://doi.org/10.1021/ct900494g

 Guidon, M; Schiffmann, F; Hutter, J; VandeVondele, J. 
 JOURNAL OF CHEMICAL PHYSICS, 128 (21), 214104 (2008). 
 Ab initio molecular dynamics using hybrid density functionals.
 https://doi.org/10.1063/1.2931945

 VandeVondele, J; Hutter, J. 
 JOURNAL OF CHEMICAL PHYSICS, 127 (11), 114105 (2007). 
 Gaussian basis sets for accurate calculations on molecular systems in
 gas and condensed phases.
 https://doi.org/10.1063/1.2770708

 Frigo, M; Johnson, SG. 
 PROCEEDINGS OF THE IEEE, 93 (2), 216-231 (2005). 
 The design and implementation of FFTW3.
 https://doi.org/10.1109/JPROC.2004.840301

 Iannuzzi, M; Chassaing, T; Wallman, T; Hutter, J. 
 CHIMIA, 59 (7-8), 499-503 (2005). 
 Ground and excited state density functional calculations with the
 Gaussian and augmented-plane-wave method.
 https://doi.org/10.2533/000942905777676164

 VandeVondele, J; Hutter, J. 
 JOURNAL OF CHEMICAL PHYSICS, 118 (10), 4365-4369 (2003). 
 An efficient orbital transformation method for electronic structure
 calculations.
 https://doi.org/10.1063/1.1543154

 Martin,Richard L.. 
 The Journal of Chemical Physics, 118 (11), 4775-4777 (2003). 
 Natural transition orbitals.
 https://doi.org/10.1063/1.1558471

 Lippert, G; Hutter, J; Parrinello, M. 
 THEORETICAL CHEMISTRY ACCOUNTS, 103 (2), 124-140 (1999). 
 The Gaussian and augmented-plane-wave density functional method for ab
 initio molecular dynamics simulations.
 https://doi.org/10.1007/s002140050523

 Krack, M; Parrinello, M. 
 PHYSICAL CHEMISTRY CHEMICAL PHYSICS, 2 (10), 2105-2112 (2000). 
 All-electron ab-initio molecular dynamics.
 https://doi.org/10.1039/b001167n

 Martyna, GJ; Tuckerman, ME. 
 JOURNAL OF CHEMICAL PHYSICS, 110 (6), 2810-2821 (1999). 
 A reciprocal space based method for treating long range interactions in
 ab initio and force-field-based calculations in clusters.
 https://doi.org/10.1063/1.477923

 BECKE, AD. PHYSICAL REVIEW A, 38 (6), 3098-3100 (1988). 
 DENSITY-FUNCTIONAL EXCHANGE-ENERGY APPROXIMATION WITH CORRECT
 ASYMPTOTIC-BEHAVIOR.
 https://doi.org/10.1103/PhysRevA.38.3098

 LEE, CT; YANG, WT; PARR, RG. 
 PHYSICAL REVIEW B, 37 (2), 785-789 (1988). 
 DEVELOPMENT OF THE COLLE-SALVETTI CORRELATION-ENERGY FORMULA INTO A
 FUNCTIONAL OF THE ELECTRON-DENSITY.
 https://doi.org/10.1103/PhysRevB.37.785

 VOSKO, SH; WILK, L; NUSAIR, M. 
 CANADIAN JOURNAL OF PHYSICS, 58 (8), 1200-1211 (1980). 
 ACCURATE SPIN-DEPENDENT ELECTRON LIQUID CORRELATION ENERGIES FOR LOCAL
 SPIN-DENSITY CALCULATIONS - A CRITICAL ANALYSIS.
 https://doi.org/10.1139/p80-159


 -------------------------------------------------------------------------------
 -                                                                             -
 -                                T I M I N G                                  -
 -                                                                             -
 -------------------------------------------------------------------------------
 SUBROUTINE                       CALLS  ASD         SELF TIME        TOTAL TIME
                                MAXIMUM       AVERAGE  MAXIMUM  AVERAGE  MAXIMUM
 CP2K                                 1  1.0    0.010    0.016  273.791  273.792
 qs_forces                            1  2.0    0.000    0.001  272.790  272.791
 qs_energies                          1  3.0    0.000    0.000  184.934  184.935
 qs_energies_properties               1  4.0    0.000    0.000  163.660  163.660
 tddfpt                               1  5.0    0.000    0.000  163.660  163.660
 tddfpt_energies                      1  6.0    0.000    0.000  126.214  126.214
 tddfpt_davidson_solver               2  7.0    0.002    0.003  125.481  125.481
 tddfpt_compute_Aop_evects           12  8.0    0.000    0.000  125.087  125.088
 fhxc_kernel                         12  9.0    0.004    0.004   79.218   79.219
 fft_wrap_pw1pw2                   3732 12.2    0.041    0.047   71.834   75.800
 excited_state_energy                 2  3.5    0.001    0.002   74.833   74.834
 fft_wrap_pw1pw2_200               2603 13.5    2.206    2.312   69.658   73.322
 integrate_four_center              274 10.6    0.059    0.062   62.405   62.414
 integrate_four_center_main         274 11.6    0.024    0.032   57.268   59.164
 integrate_four_center_bin        26030 12.6   57.244   59.145   57.244   59.145
 fft3d_ps                          3732 14.2   30.181   32.062   52.685   57.056
 response_equation                    1  4.0    0.000    0.000   53.827   53.827
 linres_solver                        1  5.0    0.001    0.003   53.792   53.793
 apply_op                            38  6.0    0.001    0.001   53.727   53.728
 derivatives_four_center              4  8.5    0.004    0.006   50.240   52.419
 derivatives_four_center_main         4  9.5    0.000    0.001   50.152   52.328
 derivatives_four_center_bin        417 10.5   47.166   51.861   47.166   51.861
 tddfpt_apply_hfx                    12  9.0    0.002    0.002   45.752   45.752
 tddft_hfx_matrix                   216 10.0    0.005    0.005   45.299   45.300
 xc_pw_derive                      1362 12.4    0.011    0.011   40.633   42.559
 tddfpt_forces_main                   1  6.0    0.000    0.000   37.366   37.366
 tddfpt_forces                        1  7.0    0.000    0.000   36.034   36.035
 tddfpt_force_direct                  1  8.0    0.000    0.000   35.426   35.427
 tddfpt_kernel_force                  1  9.0    0.000    0.000   35.417   35.417
 fhxc_force                           1 10.0    0.001    0.001   35.417   35.417
 prepare_gapw_den                   211  8.9    0.005    0.006   33.530   33.668
 rebuild_ks_matrix                   17  6.8    0.000    0.000   31.968   31.968
 qs_ks_build_kohn_sham_matrix        17  7.8    0.002    0.003   31.968   31.968
 apply_op_2_dft                      37  7.0    0.002    0.002   31.436   31.499
 xc_pw_divergence                   207 12.3    0.005    0.006   25.178   27.344
 tddfpt_apply_xc_analytic           108 10.0    1.252    1.386   25.115   25.271
 calculate_rho_elec                 205  9.7    0.337    0.360   22.465   22.468
 qs_rho_update_rho_low              200  8.7    0.002    0.002   22.418   22.420
 scf_env_do_scf                       1  4.0    0.000    0.000   21.069   21.069
 response_force                       1  4.0    0.005    0.008   21.005   21.006
 hfx_ks_matrix                       17  8.8    0.001    0.001   20.433   20.433
 calculate_rho0_atom                621  9.9   18.615   19.852   18.615   19.852
 xc_calc_2nd_deriv_analytical       767 11.2    1.617    1.791   19.245   19.528
 qs_ks_update_qs_env                 18  6.0    0.000    0.000   19.004   19.005
 density_rs2pw                      205 10.7    0.008    0.009   17.449   18.355
 xc_rho_set_and_dset_create         100 12.2    1.805    2.065   15.040   17.993
 mp_alltoall_z22v                  3732 16.2   12.087   17.797   12.087   17.797
 qs_fxc_analytic                     38  8.0    0.001    0.002   17.475   17.542
 yz_to_x                           1898 15.4    4.341    4.761   12.235   17.211
 integrate_v_rspace                 171  9.4    0.003    0.004   15.999   16.698
 qs_vxc_create                       60 11.8    0.001    0.001   16.657   16.667
 xc_vxc_pw_create                    60 12.8    0.172    0.185   16.656   16.666
 scf_env_do_scf_inner_loop           16  5.0    0.000    0.001   15.295   15.295
 tddfpt_apply_coulomb               108 10.0    0.002    0.002   13.330   14.898
 qs_ks_update_qs_env_forces           1  3.0    0.000    0.000   12.965   12.965
 xc_calc_2nd_deriv                   39  8.9    0.413    0.476   11.160   12.652
 qs_fgxc_gdiff                        1 11.0    0.000    0.000   11.914   11.916
 qs_fxc_fdiff                         7 12.0    0.001    0.001   11.884   11.886
 potential_pw2rs                    171 10.4    0.017    0.018   11.089   11.791
 x_to_yz                           1834 15.1    6.016    6.832   10.210   11.218
 put_rho0_on_grid                   207  9.9    0.377    0.422    9.662    9.828
 transfer_rs2pw                    1028 11.5    0.011    0.013    8.492    9.425
 pw_gather_p                       1898 14.4    8.132    8.352    8.132    8.352
 xc_prep_2nd_deriv                   40  8.9    0.000    0.000    6.927    8.280
 apply_hfx                           37  7.0    0.001    0.001    7.863    7.869
 hfx_matrix                          37  8.0    0.001    0.001    7.859    7.865
 integrate_vhg0_rspace              167 10.0    1.808    1.938    7.735    7.745
 transfer_rs2pw_200                 413 12.3    3.347    3.473    6.668    7.685
 pw_poisson_solve                   168 10.0    0.003    0.003    6.001    7.623
 transfer_pw2rs                     852 11.3    0.008    0.009    7.475    7.498
 mp_sum_d                          2129  9.1    4.498    7.082    4.498    7.082
 xc_functional_eval                3184 12.0    0.004    0.007    3.413    6.326
 pw_scatter_p                      1834 14.1    6.063    6.146    6.063    6.146
 mp_waitany                       15040 13.2    4.840    5.972    4.840    5.972
 transfer_pw2rs_200                 339 12.2    2.894    2.920    5.802    5.840
 init_scf_loop                        1  5.0    0.000    0.000    5.774    5.774
 grid_collocate_task_list           205 10.7    4.303    5.732    4.303    5.732
 -------------------------------------------------------------------------------

 The number of warnings for this run is : 0
 
 -------------------------------------------------------------------------------
  **** **** ******  **  PROGRAM ENDED AT                 2025-01-09 13:18:37.919
 ***** ** ***  *** **   PROGRAM RAN ON                               nesh-clk399
 **    ****   ******    PROGRAM RAN BY                                  suphc356
 ***** **    ** ** **   PROGRAM PROCESS ID                               1561265
  **** **  *******  **  PROGRAM STOPPED IN /gxfs_work/cau/suphc356/NEWTONX_proje
                                           ct/Pyrazin_molecule/CP2K_GAPW_B3LYP_d
                                           ef2_TZVP/MOLDYN_BA_again/TRAJECTORIES
                                           /TRAJ194/TEMP
