 DBCSR| CPU Multiplication driver                                           XSMM (U)
 DBCSR| Multrec recursion limit                                              512 (U)
 DBCSR| Multiplication stack size                                           1000 (D)
 DBCSR| Maximum elements for images                                    UNLIMITED (U)
 DBCSR| Multiplicative factor virtual images                                   1 (U)
 DBCSR| Use multiplication densification                                       T (D)
 DBCSR| Multiplication size stacks                                             3 (U)
 DBCSR| Use memory pool for CPU allocation                                     F (U)
 DBCSR| Number of 3D layers                                               SINGLE (U)
 DBCSR| Use MPI memory allocation                                              F (U)
 DBCSR| Use RMA algorithm                                                      F (U)
 DBCSR| Use Communication thread                                               T (U)
 DBCSR| Communication thread load                                             87 (D)
 DBCSR| MPI: My process id                                                     0
 DBCSR| MPI: Number of processes                                              16
 DBCSR| OMP: Current number of threads                                         1
 DBCSR| OMP: Max number of threads                                             1
 DBCSR| Split modifier for TAS multiplication algorithm                  1.0E+00 (U)


  **** **** ******  **  PROGRAM STARTED AT               2025-01-08 18:46:59.125
 ***** ** ***  *** **   PROGRAM STARTED ON                           nesh-clk410
 **    ****   ******    PROGRAM STARTED BY                              suphc356
 ***** **    ** ** **   PROGRAM PROCESS ID                               1383449
  **** **  *******  **  PROGRAM STARTED IN /gxfs_work/cau/suphc356/NEWTONX_proje
                                           ct/Pyrazin_molecule/CP2K_GAPW_B3LYP_d
                                           ef2_TZVP/MOLDYN_BA_again/TRAJECTORIES
                                           /TRAJ168/TEMP

 CP2K| version string:                 CP2K version 2024.1 (Development Version)
 CP2K| source code revision number:                                  git:990486a
 CP2K| cp2kflags: omp libint fftw3 libxc libgrpp parallel mpi_f08 scalapack cosm
 CP2K|            a xsmm spglib mkl
 CP2K| is freely available from                            https://www.cp2k.org/
 CP2K| Program compiled at                          Mon Mar 11 08:48:45 CET 2024
 CP2K| Program compiled on                                           nesh-login2
 CP2K| Program compiled for                                                local
 CP2K| Data directory path                 /gxfs_work/cau/suphc356/cp2k_gcc/data
 CP2K| Input file name                                                  cp2k.inp

 GLOBAL| Force Environment number                                              1
 GLOBAL| Basis set file name                                     EMSL_BASIS_SETS
 GLOBAL| Potential file name                                      ALL_POTENTIALS
 GLOBAL| MM Potential file name                                     MM_POTENTIAL
 GLOBAL| Coordinate file name                                      __STD_INPUT__
 GLOBAL| Method name                                                        CP2K
 GLOBAL| Project name                                               testsuite_ad
 GLOBAL| Run type                                                   ENERGY_FORCE
 GLOBAL| FFT library                                                       FFTW3
 GLOBAL| Diagonalization library                                       ScaLAPACK
 GLOBAL| DGEMM library                                                      BLAS
 GLOBAL| Orthonormality check for eigenvectors                          DISABLED
 GLOBAL| Matrix multiplication library                                     COSMA
 GLOBAL| All-to-all communication in single precision                          F
 GLOBAL| FFTs using library dependent lengths                                  F
 GLOBAL| Grid backend                                                       AUTO
 GLOBAL| Global print level                                               MEDIUM
 GLOBAL| MPI I/O enabled                                                       T
 GLOBAL| Total number of message passing processes                            16
 GLOBAL| Number of threads for this process                                    1
 GLOBAL| This output is from process                                           0
 GLOBAL| Stack size for threads created by OpenMP (OMP_STACKSIZE)           256M
 GLOBAL| CPU model name                Intel(R) Xeon(R) Gold 6226R CPU @ 2.90GHz
 GLOBAL| CPUID                                                              1003
 GLOBAL| Compiled for CPUID                                                    0

 *** HINT in environment.F:920 :: The compiler target flags (generic) used ***
 *** to build this binary cannot exploit all extensions of this CPU model  ***
 *** (x86_avx512). Consider compiler target flags as part of FCFLAGS and   ***
 *** CFLAGS (ARCH file).                                                   ***


 MEMORY| system memory details [Kb]
 MEMORY|                        rank 0           min           max       average
 MEMORY| MemTotal            196680912     196680912     196680912     196680912
 MEMORY| MemFree             175923776     175923776     175923776     175923776
 MEMORY| Buffers                726248        726248        726248        726248
 MEMORY| Cached                1448036       1448036       1448036       1448036
 MEMORY| Slab                  4142924       4142924       4142924       4142924
 MEMORY| SReclaimable           262988        262988        262988        262988
 MEMORY| MemLikelyFree       178361048     178361048     178361048     178361048


 *** Fundamental physical constants (SI units) ***

 *** Literature: B. J. Mohr and B. N. Taylor,
 ***             CODATA recommended values of the fundamental physical
 ***             constants: 2006, Web Version 5.1
 ***             http://physics.nist.gov/constants

 Speed of light in vacuum [m/s]                             2.99792458000000E+08
 Magnetic constant or permeability of vacuum [N/A**2]       1.25663706143592E-06
 Electric constant or permittivity of vacuum [F/m]          8.85418781762039E-12
 Planck constant (h) [J*s]                                  6.62606896000000E-34
 Planck constant (h-bar) [J*s]                              1.05457162825177E-34
 Elementary charge [C]                                      1.60217648700000E-19
 Electron mass [kg]                                         9.10938215000000E-31
 Electron g factor [ ]                                     -2.00231930436220E+00
 Proton mass [kg]                                           1.67262163700000E-27
 Fine-structure constant                                    7.29735253760000E-03
 Rydberg constant [1/m]                                     1.09737315685270E+07
 Avogadro constant [1/mol]                                  6.02214179000000E+23
 Boltzmann constant [J/K]                                   1.38065040000000E-23
 Atomic mass unit [kg]                                      1.66053878200000E-27
 Bohr radius [m]                                            5.29177208590000E-11

 *** Conversion factors ***

 [u] -> [a.u.]                                              1.82288848426455E+03
 [Angstrom] -> [Bohr] = [a.u.]                              1.88972613288564E+00
 [a.u.] = [Bohr] -> [Angstrom]                              5.29177208590000E-01
 [a.u.] -> [s]                                              2.41888432650478E-17
 [a.u.] -> [fs]                                             2.41888432650478E-02
 [a.u.] -> [J]                                              4.35974393937059E-18
 [a.u.] -> [N]                                              8.23872205491840E-08
 [a.u.] -> [K]                                              3.15774647902944E+05
 [a.u.] -> [kJ/mol]                                         2.62549961709828E+03
 [a.u.] -> [kcal/mol]                                       6.27509468713739E+02
 [a.u.] -> [Pa]                                             2.94210107994716E+13
 [a.u.] -> [bar]                                            2.94210107994716E+08
 [a.u.] -> [atm]                                            2.90362800883016E+08
 [a.u.] -> [eV]                                             2.72113838565563E+01
 [a.u.] -> [Hz]                                             6.57968392072181E+15
 [a.u.] -> [1/cm] (wave numbers)                            2.19474631370540E+05
 [a.u./Bohr**2] -> [1/cm]                                   5.14048714338585E+03
 

 CELL_TOP| Volume [angstrom^3]:                                      2744.000000
 CELL_TOP| Vector a [angstrom    14.000     0.000     0.000   |a| =    14.000000
 CELL_TOP| Vector b [angstrom     0.000    14.000     0.000   |b| =    14.000000
 CELL_TOP| Vector c [angstrom     0.000     0.000    14.000   |c| =    14.000000
 CELL_TOP| Angle (b,c), alpha [degree]:                                90.000000
 CELL_TOP| Angle (a,c), beta  [degree]:                                90.000000
 CELL_TOP| Angle (a,b), gamma [degree]:                                90.000000
 CELL_TOP| Numerically orthorhombic:                                         YES
 CELL_TOP| Periodicity                                                      NONE

 CELL| Volume [angstrom^3]:                                          2744.000000
 CELL| Vector a [angstrom]:      14.000     0.000     0.000   |a| =    14.000000
 CELL| Vector b [angstrom]:       0.000    14.000     0.000   |b| =    14.000000
 CELL| Vector c [angstrom]:       0.000     0.000    14.000   |c| =    14.000000
 CELL| Angle (b,c), alpha [degree]:                                    90.000000
 CELL| Angle (a,c), beta  [degree]:                                    90.000000
 CELL| Angle (a,b), gamma [degree]:                                    90.000000
 CELL| Numerically orthorhombic:                                             YES
 CELL| Periodicity                                                          NONE

 CELL_REF| Volume [angstrom^3]:                                      2744.000000
 CELL_REF| Vector a [angstrom    14.000     0.000     0.000   |a| =    14.000000
 CELL_REF| Vector b [angstrom     0.000    14.000     0.000   |b| =    14.000000
 CELL_REF| Vector c [angstrom     0.000     0.000    14.000   |c| =    14.000000
 CELL_REF| Angle (b,c), alpha [degree]:                                90.000000
 CELL_REF| Angle (a,c), beta  [degree]:                                90.000000
 CELL_REF| Angle (a,b), gamma [degree]:                                90.000000
 CELL_REF| Numerically orthorhombic:                                         YES
 CELL_REF| Periodicity                                                      NONE

 *******************************************************************************
 *******************************************************************************
 **                                                                           **
 **     #####                         ##              ##                      **
 **    ##   ##            ##          ##              ##                      **
 **   ##     ##                       ##            ######                    **
 **   ##     ##  ##   ##  ##   #####  ##  ##   ####   ##    #####    #####    **
 **   ##     ##  ##   ##  ##  ##      ## ##   ##      ##   ##   ##  ##   ##   **
 **   ##  ## ##  ##   ##  ##  ##      ####     ###    ##   ######   ######    **
 **    ##  ###   ##   ##  ##  ##      ## ##      ##   ##   ##       ##        **
 **     #######   #####   ##   #####  ##  ##  ####    ##    #####   ##        **
 **           ##                                                    ##        **
 **                                                                           **
 **                                                ... make the atoms dance   **
 **                                                                           **
 **            Copyright (C) by CP2K developers group (2000-2024)             **
 **                      J. Chem. Phys. 152, 194103 (2020)                    **
 **                                                                           **
 *******************************************************************************

 DFT| Spin restricted Kohn-Sham (RKS) calculation                            RKS
 DFT| Multiplicity                                                             1
 DFT| Number of spin states                                                    1
 DFT| Charge                                                                   0
 DFT| Self-interaction correction (SIC)                                       NO
 DFT| Cutoffs: density                                              1.000000E-10
 DFT|          gradient                                             1.000000E-10
 DFT|          tau                                                  1.000000E-10
 DFT|          cutoff_smoothing_range                               0.000000E+00
 DFT| XC density smoothing                                                  NONE
 DFT| XC derivatives                                                          PW

 FUNCTIONAL| BECKE88:
 FUNCTIONAL| A. Becke, Phys. Rev. A 38, 3098 (1988) {LDA version}               
 FUNCTIONAL| LYP:
 FUNCTIONAL| C. Lee, W. Yang, R.G. Parr, Phys. Rev. B, 37, 785 (1988) {LDA versi
 FUNCTIONAL| on}                                                                
 FUNCTIONAL| VWN:
 FUNCTIONAL| S. H. Vosko, L. Wilk and M. Nusair, Can. J. Phys. 58, 1200 (1980) {
 FUNCTIONAL| LDA version}                                                       
 FUNCTIONAL| XALPHA:
 FUNCTIONAL| Dirac/Slater local exchange; parameter=  0.666 {LDA}               

 vdW POTENTIAL|                                                   Pair Potential
 vdW POTENTIAL|          DFT-D3 (Version 3.1)
 vdW POTENTIAL|          Potential Form: S. Grimme et al, JCP 132: 154104 (2010)
 vdW POTENTIAL|          Zero Damping
 vdW POTENTIAL|          Cutoff Radius [Bohr]:                             37.79
 vdW POTENTIAL|          s6 Scaling Factor:                               1.0000
 vdW POTENTIAL|          sr6 Scaling Factor:                              1.2610
 vdW POTENTIAL|          s8 Scaling Factor:                               1.7030
 vdW POTENTIAL|          Cutoff for CN calculation:                   0.1000E-05

 QS| Method:                                                                GAPW
 QS| Density plane wave grid type                        NON-SPHERICAL FULLSPACE
 QS| Number of grid levels:                                                    4
 QS| Density cutoff [a.u.]:                                                200.0
 QS| Multi grid cutoff [a.u.]: 1) grid level                               200.0
 QS|                           2) grid level                                66.7
 QS|                           3) grid level                                22.2
 QS|                           4) grid level                                 7.4
 QS| Grid level progression factor:                                          3.0
 QS| Relative density cutoff [a.u.]:                                        30.0
 QS| Interaction thresholds: eps_pgf_orb:                                1.0E-07
 QS|                         eps_filter_matrix:                          0.0E+00
 QS|                         eps_core_charge:                            1.0E-16
 QS|                         eps_rho_gspace:                             1.0E-14
 QS|                         eps_rho_rspace:                             1.0E-14
 QS|                         eps_gvg_rspace:                             1.0E-07
 QS|                         eps_ppl:                                    1.0E-02
 QS|                         eps_ppnl:                                   1.0E-09
 QS| GAPW|      One center basis extended with primitives (small:s)
 QS| GAPW|                   eps_fit:                                    1.0E-04
 QS| GAPW|                   eps_iso:                                    1.0E-12
 QS| GAPW|                   eps_svd:                                    1.0E-08
 QS| GAPW|                   eps_cpc:                                    1.0E-14
 QS| GAPW|   atom-r-grid: quadrature:                                     GC_LOG
 QS| GAPW|      atom-s-grid:  max l :                                          6
 QS| GAPW|      max_l_rho0 :                                                   4


 ATOMIC KIND INFORMATION

  1. Atomic kind: n                                     Number of atoms:       2

     Orbital Basis Set                                        Ahlrichs-def2-TZVP

       Number of orbital shell sets:                                          11
       Number of orbital shells:                                              11
       Number of primitive Cartesian functions:                               20
       Number of Cartesian basis functions:                                   36
       Number of spherical basis functions:                                   31
       Norm type:                                                              2

       Normalised Cartesian orbitals:

                        Set   Shell   Orbital            Exponent    Coefficient

                          1       1    1s            19730.800647       0.695604
                                                      2957.895874       1.298610
                                                       673.221336       2.219088
                                                       190.682495       3.463661
                                                        62.295442       4.696756
                                                        22.654161       4.952251

                          2       1    1s                8.979148       2.388068
                                                         3.686300       0.733788

                          3       1    1s                0.846601       0.629027

                          4       1    1s                0.336471       0.314863

                          5       1    1s                0.136477       0.160031

                          6       1    1px              49.200381       2.126481
                                                        11.346791       2.327937
                                                         3.427397       2.048573
                                                         1.178553       1.260732
                          6       1    1py              49.200381       2.126481
                                                        11.346791       2.327937
                                                         3.427397       2.048573
                                                         1.178553       1.260732
                          6       1    1pz              49.200381       2.126481
                                                        11.346791       2.327937
                                                         3.427397       2.048573
                                                         1.178553       1.260732

                          7       1    1px               0.416422       0.476823
                          7       1    1py               0.416422       0.476823
                          7       1    1pz               0.416422       0.476823

                          8       1    1px               0.142608       0.124917
                          8       1    1py               0.142608       0.124917
                          8       1    1pz               0.142608       0.124917

                          9       1    1dx2              1.654000       3.970513
                          9       1    1dxy              1.654000       6.877130
                          9       1    1dxz              1.654000       6.877130
                          9       1    1dy2              1.654000       3.970513
                          9       1    1dyz              1.654000       6.877130
                          9       1    1dz2              1.654000       3.970513

                         10       1    1dx2              0.469000       0.437484
                         10       1    1dxy              0.469000       0.757744
                         10       1    1dxz              0.469000       0.757744
                         10       1    1dy2              0.469000       0.437484
                         10       1    1dyz              0.469000       0.757744
                         10       1    1dz2              0.469000       0.437484

                         11       1    1fx3              1.093000       1.798249
                         11       1    1fx2y             1.093000       4.021007
                         11       1    1fx2z             1.093000       4.021007
                         11       1    1fxy2             1.093000       4.021007
                         11       1    1fxyz             1.093000       6.964588
                         11       1    1fxz2             1.093000       4.021007
                         11       1    1fy3              1.093000       1.798249
                         11       1    1fy2z             1.093000       4.021007
                         11       1    1fyz2             1.093000       4.021007
                         11       1    1fz3              1.093000       1.798249

       Atomic covalent radius [Angstrom]:                                  0.750

       Atomic van der Waals radius [Angstrom]:                             1.550

     The atoms of this atomic kind are PAW atoms (GAPW):
       Hard Gaussian function radius:                                      1.400
       Rho0 radius:                                                        1.400
       Maximum GTO radius used for PAW projector construction:            24.566

     GAPW Soft Basis Set                                 Ahlrichs-def2-TZVP_soft

       Number of orbital shell sets:                                          11
       Number of orbital shells:                                              11
       Number of primitive Cartesian functions:                               11
       Number of Cartesian basis functions:                                   36
       Number of spherical basis functions:                                   31
       Norm type:                                                              2

       Normalised Cartesian orbitals:

                        Set   Shell   Orbital            Exponent    Coefficient

                          1       1    1s         

                          2       1    1s                3.686300       0.733788

                          3       1    1s                0.846601       0.629027

                          4       1    1s                0.336471       0.314863

                          5       1    1s                0.136477       0.160031

                          6       1    1px               3.427397       2.048573
                                                         1.178553       1.260732
                          6       1    1py               3.427397       2.048573
                                                         1.178553       1.260732
                          6       1    1pz               3.427397       2.048573
                                                         1.178553       1.260732

                          7       1    1px               0.416422       0.476823
                          7       1    1py               0.416422       0.476823
                          7       1    1pz               0.416422       0.476823

                          8       1    1px               0.142608       0.124917
                          8       1    1py               0.142608       0.124917
                          8       1    1pz               0.142608       0.124917

                          9       1    1dx2              1.654000       3.970513
                          9       1    1dxy              1.654000       6.877130
                          9       1    1dxz              1.654000       6.877130
                          9       1    1dy2              1.654000       3.970513
                          9       1    1dyz              1.654000       6.877130
                          9       1    1dz2              1.654000       3.970513

                         10       1    1dx2              0.469000       0.437484
                         10       1    1dxy              0.469000       0.757744
                         10       1    1dxz              0.469000       0.757744
                         10       1    1dy2              0.469000       0.437484
                         10       1    1dyz              0.469000       0.757744
                         10       1    1dz2              0.469000       0.437484

                         11       1    1fx3              1.093000       1.798249
                         11       1    1fx2y             1.093000       4.021007
                         11       1    1fx2z             1.093000       4.021007
                         11       1    1fxy2             1.093000       4.021007
                         11       1    1fxyz             1.093000       6.964588
                         11       1    1fxz2             1.093000       4.021007
                         11       1    1fy3              1.093000       1.798249
                         11       1    1fy2z             1.093000       4.021007
                         11       1    1fyz2             1.093000       4.021007
                         11       1    1fz3              1.093000       1.798249

     AE Potential information for                                            ALL

       Description:                                       All-electron potential
                                          Krack, Parrinello, PCCP 2, 2105 (2000)

       Gaussian exponent of the core charge distribution:               5.979100
       Electronic configuration (s p d ...):                           4   3   0

  2. Atomic kind: c                                     Number of atoms:       4

     Orbital Basis Set                                        Ahlrichs-def2-TZVP

       Number of orbital shell sets:                                          11
       Number of orbital shells:                                              11
       Number of primitive Cartesian functions:                               20
       Number of Cartesian basis functions:                                   36
       Number of spherical basis functions:                                   31
       Norm type:                                                              2

       Normalised Cartesian orbitals:

                        Set   Shell   Orbital            Exponent    Coefficient

                          1       1    1s            13575.349682       0.543591
                                                      2035.233368       1.014554
                                                       463.225624       1.731573
                                                       131.200196       2.691038
                                                        42.853016       3.604455
                                                        15.584186       3.702556

                          2       1    1s                6.206714       1.838354
                                                         2.576490       0.544758

                          3       1    1s                0.576963       0.471815

                          4       1    1s                0.229728       0.236494

                          5       1    1s                0.095164       0.122114

                          6       1    1px              34.697232       1.359665
                                                         7.958262       1.451259
                                                         2.378083       1.270923
                                                         0.814332       0.802572
                          6       1    1py              34.697232       1.359665
                                                         7.958262       1.451259
                                                         2.378083       1.270923
                                                         0.814332       0.802572
                          6       1    1pz              34.697232       1.359665
                                                         7.958262       1.451259
                                                         2.378083       1.270923
                                                         0.814332       0.802572

                          7       1    1px               0.288875       0.301876
                          7       1    1py               0.288875       0.301876
                          7       1    1pz               0.288875       0.301876

                          8       1    1px               0.100568       0.080727
                          8       1    1py               0.100568       0.080727
                          8       1    1pz               0.100568       0.080727

                          9       1    1dx2              1.097000       1.935401
                          9       1    1dxy              1.097000       3.352214
                          9       1    1dxz              1.097000       3.352214
                          9       1    1dy2              1.097000       1.935401
                          9       1    1dyz              1.097000       3.352214
                          9       1    1dz2              1.097000       1.935401

                         10       1    1dx2              0.318000       0.221644
                         10       1    1dxy              0.318000       0.383899
                         10       1    1dxz              0.318000       0.383899
                         10       1    1dy2              0.318000       0.221644
                         10       1    1dyz              0.318000       0.383899
                         10       1    1dz2              0.318000       0.221644

                         11       1    1fx3              0.761000       0.796288
                         11       1    1fx2y             0.761000       1.780553
                         11       1    1fx2z             0.761000       1.780553
                         11       1    1fxy2             0.761000       1.780553
                         11       1    1fxyz             0.761000       3.084008
                         11       1    1fxz2             0.761000       1.780553
                         11       1    1fy3              0.761000       0.796288
                         11       1    1fy2z             0.761000       1.780553
                         11       1    1fyz2             0.761000       1.780553
                         11       1    1fz3              0.761000       0.796288

       Atomic covalent radius [Angstrom]:                                  0.770

       Atomic van der Waals radius [Angstrom]:                             1.700

     The atoms of this atomic kind are PAW atoms (GAPW):
       Hard Gaussian function radius:                                      1.520
       Rho0 radius:                                                        1.520
       Maximum GTO radius used for PAW projector construction:            24.566

     GAPW Soft Basis Set                                 Ahlrichs-def2-TZVP_soft

       Number of orbital shell sets:                                          11
       Number of orbital shells:                                              11
       Number of primitive Cartesian functions:                               11
       Number of Cartesian basis functions:                                   36
       Number of spherical basis functions:                                   31
       Norm type:                                                              2

       Normalised Cartesian orbitals:

                        Set   Shell   Orbital            Exponent    Coefficient

                          1       1    1s         

                          2       1    1s                2.576490       0.544758

                          3       1    1s                0.576963       0.471815

                          4       1    1s                0.229728       0.236494

                          5       1    1s                0.095164       0.122114

                          6       1    1px               2.378083       1.270923
                                                         0.814332       0.802572
                          6       1    1py               2.378083       1.270923
                                                         0.814332       0.802572
                          6       1    1pz               2.378083       1.270923
                                                         0.814332       0.802572

                          7       1    1px               0.288875       0.301876
                          7       1    1py               0.288875       0.301876
                          7       1    1pz               0.288875       0.301876

                          8       1    1px               0.100568       0.080727
                          8       1    1py               0.100568       0.080727
                          8       1    1pz               0.100568       0.080727

                          9       1    1dx2              1.097000       1.935401
                          9       1    1dxy              1.097000       3.352214
                          9       1    1dxz              1.097000       3.352214
                          9       1    1dy2              1.097000       1.935401
                          9       1    1dyz              1.097000       3.352214
                          9       1    1dz2              1.097000       1.935401

                         10       1    1dx2              0.318000       0.221644
                         10       1    1dxy              0.318000       0.383899
                         10       1    1dxz              0.318000       0.383899
                         10       1    1dy2              0.318000       0.221644
                         10       1    1dyz              0.318000       0.383899
                         10       1    1dz2              0.318000       0.221644

                         11       1    1fx3              0.761000       0.796288
                         11       1    1fx2y             0.761000       1.780553
                         11       1    1fx2z             0.761000       1.780553
                         11       1    1fxy2             0.761000       1.780553
                         11       1    1fxyz             0.761000       3.084008
                         11       1    1fxz2             0.761000       1.780553
                         11       1    1fy3              0.761000       0.796288
                         11       1    1fy2z             0.761000       1.780553
                         11       1    1fyz2             0.761000       1.780553
                         11       1    1fz3              0.761000       0.796288

     AE Potential information for                                            ALL

       Description:                                       All-electron potential
                                          Krack, Parrinello, PCCP 2, 2105 (2000)

       Gaussian exponent of the core charge distribution:               4.109048
       Electronic configuration (s p d ...):                           4   2   0

  3. Atomic kind: h                                     Number of atoms:       4

     Orbital Basis Set                                        Ahlrichs-def2-TZVP

       Number of orbital shell sets:                                           4
       Number of orbital shells:                                               4
       Number of primitive Cartesian functions:                                6
       Number of Cartesian basis functions:                                    6
       Number of spherical basis functions:                                    6
       Norm type:                                                              2

       Normalised Cartesian orbitals:

                        Set   Shell   Orbital            Exponent    Coefficient

                          1       1    1s               34.061341       0.255630
                                                         5.123575       0.461360
                                                         1.164663       0.681121

                          2       1    1s                0.327230       0.308355

                          3       1    1s                0.103072       0.129648

                          4       1    1px               0.800000       1.078456
                          4       1    1py               0.800000       1.078456
                          4       1    1pz               0.800000       1.078456

       Atomic covalent radius [Angstrom]:                                  0.320

       Atomic van der Waals radius [Angstrom]:                             1.090

     The atoms of this atomic kind are PAW atoms (GAPW):
       Hard Gaussian function radius:                                      1.000
       Rho0 radius:                                                        1.000
       Maximum GTO radius used for PAW projector construction:            24.566

     GAPW Soft Basis Set                                 Ahlrichs-def2-TZVP_soft

       Number of orbital shell sets:                                           4
       Number of orbital shells:                                               4
       Number of primitive Cartesian functions:                                5
       Number of Cartesian basis functions:                                    6
       Number of spherical basis functions:                                    6
       Norm type:                                                              2

       Normalised Cartesian orbitals:

                        Set   Shell   Orbital            Exponent    Coefficient

                          1       1    1s                5.123575       0.461360
                                                         1.164663       0.681121

                          2       1    1s                0.327230       0.308355

                          3       1    1s                0.103072       0.129648

                          4       1    1px               0.800000       1.078456
                          4       1    1py               0.800000       1.078456
                          4       1    1pz               0.800000       1.078456

     AE Potential information for                                            ALL

       Description:                                       All-electron potential
                                          Krack, Parrinello, PCCP 2, 2105 (2000)

       Gaussian exponent of the core charge distribution:              12.500000
       Electronic configuration (s p d ...):                           1   0   0


 MOLECULE KIND INFORMATION


 All atoms are their own molecule, skipping detailed information


 TOTAL NUMBERS AND MAXIMUM NUMBERS

  Total number of            - Atomic kinds:                                   3
                             - Atoms:                                         10
                             - Shell sets:                                    82
                             - Shells:                                        82
                             - Primitive Cartesian functions:                144
                             - Cartesian basis functions:                    240
                             - Spherical basis functions:                    210

  Maximum angular momentum of the orbital basis functions:                     3


 MODULE QUICKSTEP: ATOMIC COORDINATES IN ANGSTROM

   Atom Kind Element         X             Y             Z       Z(eff)     Mass
      1    1 n     7      6.979242      8.085357      7.644548   7.0000  14.0067
      2    1 n     7      6.945620      5.943992      6.420533   7.0000  14.0067
      3    2 c     6      7.156781      7.056799      8.380088   6.0000  12.0107
      4    2 c     6      6.681332      5.836671      7.757427   6.0000  12.0107
      5    2 c     6      7.162154      8.143715      6.216066   6.0000  12.0107
      6    2 c     6      6.997880      6.812641      5.700939   6.0000  12.0107
      7    3 h     1      7.318668      6.998989      9.498984   1.0000   1.0079
      8    3 h     1      6.991571      4.978752      8.291858   1.0000   1.0079
      9    3 h     1      7.018125      9.021248      5.666607   1.0000   1.0079
     10    3 h     1      6.788002      6.716528      4.501016   1.0000   1.0079



 SCF PARAMETERS         Density guess:                                   RESTART
                        --------------------------------------------------------
                        max_scf:                                              50
                        max_scf_history:                                       0
                        max_diis:                                              4
                        --------------------------------------------------------
                        eps_scf:                                        1.00E-08
                        eps_scf_history:                                0.00E+00
                        eps_diis:                                       1.00E-01
                        eps_eigval:                                     1.00E-05
                        --------------------------------------------------------
                        level_shift [a.u.]:                             0.000000
                        --------------------------------------------------------
                        Outer loop SCF in use 
                        No variables optimised in outer loop
                        eps_scf                                         1.00E-08
                        max_scf                                              900
                        No outer loop optimization
                        step_size                                       5.00E-01

 PW_GRID| Information for grid number                                          1
 PW_GRID| Grid distributed over                                    16 processors
 PW_GRID| Real space group dimensions                                    16    1
 PW_GRID| the grid is blocked:                                                NO
 PW_GRID| Cutoff [a.u.]                                                    400.0
 PW_GRID| spherical cutoff:                                                   NO
 PW_GRID|   Bounds   1           -120     119                Points:         240
 PW_GRID|   Bounds   2           -120     119                Points:         240
 PW_GRID|   Bounds   3           -120     119                Points:         240
 PW_GRID| Volume element (a.u.^3)  0.1340E-02     Volume (a.u.^3)     18517.4301
 PW_GRID| Grid span                                                    FULLSPACE
 PW_GRID|   Distribution                         Average         Max         Min
 PW_GRID|   G-Vectors                           864000.0      864000      864000
 PW_GRID|   G-Rays                                3600.0        3600        3600
 PW_GRID|   Real Space Points                   864000.0      864000      864000

 PW_GRID| Information for grid number                                          2
 PW_GRID| Number of the reference grid                                         1
 PW_GRID| Grid distributed over                                    16 processors
 PW_GRID| Real space group dimensions                                    16    1
 PW_GRID| the grid is blocked:                                                NO
 PW_GRID| Cutoff [a.u.]                                                    200.0
 PW_GRID| spherical cutoff:                                                   NO
 PW_GRID|   Bounds   1            -90      89                Points:         180
 PW_GRID|   Bounds   2            -90      89                Points:         180
 PW_GRID|   Bounds   3            -90      89                Points:         180
 PW_GRID| Volume element (a.u.^3)  0.3175E-02     Volume (a.u.^3)     18517.4301
 PW_GRID| Grid span                                                    FULLSPACE
 PW_GRID|   Distribution                         Average         Max         Min
 PW_GRID|   G-Vectors                           364500.0      364680      364320
 PW_GRID|   G-Rays                                2025.0        2026        2024
 PW_GRID|   Real Space Points                   364500.0      388800      356400

 PW_GRID| Information for grid number                                          3
 PW_GRID| Number of the reference grid                                         2
 PW_GRID| Grid distributed over                                    16 processors
 PW_GRID| Real space group dimensions                                    16    1
 PW_GRID| the grid is blocked:                                                NO
 PW_GRID| Cutoff [a.u.]                                                     66.7
 PW_GRID| spherical cutoff:                                                   NO
 PW_GRID|   Bounds   1            -50      49                Points:         100
 PW_GRID|   Bounds   2            -50      49                Points:         100
 PW_GRID|   Bounds   3            -50      49                Points:         100
 PW_GRID| Volume element (a.u.^3)  0.1852E-01     Volume (a.u.^3)     18517.4301
 PW_GRID| Grid span                                                    FULLSPACE
 PW_GRID|   Distribution                         Average         Max         Min
 PW_GRID|   G-Vectors                            62500.0       62600       62400
 PW_GRID|   G-Rays                                 625.0         626         624
 PW_GRID|   Real Space Points                    62500.0       70000       60000

 PW_GRID| Information for grid number                                          4
 PW_GRID| Number of the reference grid                                         2
 PW_GRID| Grid distributed over                                    16 processors
 PW_GRID| Real space group dimensions                                    16    1
 PW_GRID| the grid is blocked:                                                NO
 PW_GRID| Cutoff [a.u.]                                                     22.2
 PW_GRID| spherical cutoff:                                                   NO
 PW_GRID|   Bounds   1            -30      29                Points:          60
 PW_GRID|   Bounds   2            -30      29                Points:          60
 PW_GRID|   Bounds   3            -30      29                Points:          60
 PW_GRID| Volume element (a.u.^3)  0.8573E-01     Volume (a.u.^3)     18517.4301
 PW_GRID| Grid span                                                    FULLSPACE
 PW_GRID|   Distribution                         Average         Max         Min
 PW_GRID|   G-Vectors                            13500.0       13560       13440
 PW_GRID|   G-Rays                                 225.0         226         224
 PW_GRID|   Real Space Points                    13500.0       14400       10800

 PW_GRID| Information for grid number                                          5
 PW_GRID| Number of the reference grid                                         2
 PW_GRID| Grid distributed over                                    16 processors
 PW_GRID| Real space group dimensions                                    16    1
 PW_GRID| the grid is blocked:                                                NO
 PW_GRID| Cutoff [a.u.]                                                      7.4
 PW_GRID| spherical cutoff:                                                   NO
 PW_GRID|   Bounds   1            -18      17                Points:          36
 PW_GRID|   Bounds   2            -18      17                Points:          36
 PW_GRID|   Bounds   3            -18      17                Points:          36
 PW_GRID| Volume element (a.u.^3)  0.3969         Volume (a.u.^3)     18517.4301
 PW_GRID| Grid span                                                    FULLSPACE
 PW_GRID|   Distribution                         Average         Max         Min
 PW_GRID|   G-Vectors                             2916.0        2952        2880
 PW_GRID|   G-Rays                                  81.0          82          80
 PW_GRID|   Real Space Points                     2916.0        3888        2592

 POISSON| Solver                                          Martyna-Tuckerman (MT)
 POISSON| MT| Alpha                                                        7.000
 POISSON| MT| Relative cutoff                                                2.0
 POISSON| Periodicity                                                       NONE

 RS_GRID| Information for grid number                                          2
 RS_GRID|   Bounds   1            -90      89                Points:         180
 RS_GRID|   Bounds   2            -90      89                Points:         180
 RS_GRID|   Bounds   3            -90      89                Points:         180
 RS_GRID| Real space distribution over                                  4 groups
 RS_GRID| Real space distribution along direction                              2
 RS_GRID| Border size                                                         31
 RS_GRID| Real space distribution over                                  4 groups
 RS_GRID| Real space distribution along direction                              3
 RS_GRID| Border size                                                         31
 RS_GRID|   Distribution                         Average         Max         Min
 RS_GRID|   Planes                                 107.0         107         107
 RS_GRID|   Distribution                         Average         Max         Min
 RS_GRID|   Planes                                 107.0         107         107

 RS_GRID| Information for grid number                                          3
 RS_GRID|   Bounds   1            -50      49                Points:         100
 RS_GRID|   Bounds   2            -50      49                Points:         100
 RS_GRID|   Bounds   3            -50      49                Points:         100
 RS_GRID| Real space fully replicated
 RS_GRID| Group size                                                           1

 RS_GRID| Information for grid number                                          4
 RS_GRID|   Bounds   1            -30      29                Points:          60
 RS_GRID|   Bounds   2            -30      29                Points:          60
 RS_GRID|   Bounds   3            -30      29                Points:          60
 RS_GRID| Real space fully replicated
 RS_GRID| Group size                                                           1

 RS_GRID| Information for grid number                                          5
 RS_GRID|   Bounds   1            -18      17                Points:          36
 RS_GRID|   Bounds   2            -18      17                Points:          36
 RS_GRID|   Bounds   3            -18      17                Points:          36
 RS_GRID| Real space fully replicated
 RS_GRID| Group size                                                           1

  HFX_INFO| Replica ID:                                                        1
  HFX_INFO| FRACTION:                                               0.2000000000
  HFX_INFO| Interaction Potential:                                       COULOMB
  HFX_INFO| EPS_SCHWARZ:                                                 1.0E-10
  HFX_INFO| EPS_SCHWARZ_FORCES                                           1.0E-08
  HFX_INFO| EPS_STORAGE_SCALING:                                         1.0E+00
  HFX_INFO| NBINS:                                                            64
  HFX_INFO| BLOCK_SIZE:                                                        1
  HFX_INFO| Number of periodic shells considered:                           NONE
  HFX_INFO| Number of periodic cells considered:                            NONE


 Number of electrons:                                                         42
 Number of occupied orbitals:                                                 21
 Number of molecular orbitals:                                                21

 Number of orbital functions:                                                210
 Number of independent orbital functions:                                    210

 Extrapolation method: initial_guess


 SCF WAVEFUNCTION OPTIMIZATION

  ----------------------------------- OT ---------------------------------------
  Minimizer      : DIIS                : direct inversion
                                         in the iterative subspace
                                         using   7 DIIS vectors
                                         safer DIIS on
  Preconditioner : FULL_ALL            : diagonalization, state selective
  Precond_solver : DEFAULT
  stepsize       :    0.15000000                  energy_gap     :    0.08000000
  eps_taylor     :   0.10000E-15                  max_taylor     :             4
  ----------------------------------- OT ---------------------------------------

  Step     Update method      Time    Convergence         Total energy    Change
  ------------------------------------------------------------------------------

  HFX_MEM_INFO| Est. max. program size before HFX [MiB]:                     639
  HFX_MEM_INFO| Number of cart. primitive ERI's calculated:           1732848177
  HFX_MEM_INFO| Number of sph. ERI's calculated:                       316404510
  HFX_MEM_INFO| Number of sph. ERI's stored in-core:                   316404510
  HFX_MEM_INFO| Number of sph. ERI's stored on disk:                           0
  HFX_MEM_INFO| Number of sph. ERI's calculated on the fly:                    0
  HFX_MEM_INFO| Total memory consumption ERI's RAM [MiB]:                    944
  HFX_MEM_INFO| Whereof max-vals [MiB]:                                        5
  HFX_MEM_INFO| Total compression factor ERI's RAM:                         2.56
  HFX_MEM_INFO| Total memory consumption ERI's disk [MiB]:                     0
  HFX_MEM_INFO| Total compression factor ERI's disk:                        0.00
  HFX_MEM_INFO| Size of density/Fock matrix [MiB]:                             0
  HFX_MEM_INFO| Size of buffers [MiB]:                                         0
  HFX_MEM_INFO| Est. max. program size after HFX  [MiB]:                     697

     1 OT DIIS     0.15E+00    5.8     0.01630486      -263.9578435023 -2.64E+02
     2 OT DIIS     0.15E+00    1.0     0.00732555      -264.0799188290 -1.22E-01
     3 OT DIIS     0.15E+00    1.0     0.00432228      -264.1052339970 -2.53E-02
     4 OT DIIS     0.15E+00    1.0     0.00083630      -264.1091541877 -3.92E-03
     5 OT DIIS     0.15E+00    1.0     0.00042843      -264.1092979952 -1.44E-04
     6 OT DIIS     0.15E+00    1.0     0.00014864      -264.1093429384 -4.49E-05
     7 OT DIIS     0.15E+00    1.0     0.00008380      -264.1093502880 -7.35E-06
     8 OT DIIS     0.15E+00    1.0     0.00002637      -264.1093530113 -2.72E-06
     9 OT DIIS     0.15E+00    1.0     0.00001139      -264.1093534344 -4.23E-07
    10 OT DIIS     0.15E+00    1.0     0.00000449      -264.1093534991 -6.48E-08
    11 OT DIIS     0.15E+00    1.0     0.00000179      -264.1093535126 -1.34E-08
    12 OT DIIS     0.15E+00    1.0     0.00000120      -264.1093535136 -1.06E-09
    13 OT DIIS     0.15E+00    1.0     0.00000041      -264.1093535140 -3.90E-10
    14 OT DIIS     0.15E+00    1.0     0.00000022      -264.1093535140 -2.10E-11
    15 OT DIIS     0.15E+00    1.0     0.00000008      -264.1093535140 -6.14E-12
    16 OT DIIS     0.15E+00    1.0     0.00000003      -264.1093535140  1.00E-11
    17 OT DIIS     0.15E+00    1.0     0.00000001      -264.1093535140  5.68E-14
    18 OT DIIS     0.15E+00    1.0     7.1346E-09      -264.1093535140  6.82E-12

  *** SCF run converged in    18 steps ***


  Electronic density on regular grids:        -30.6414750115       11.3585249885
  Core density on regular grids:               42.0000000000       -0.0000000000
  Hard and soft densities (Lebedev):          -97.8101930917      -86.4516680830
  Total Rho_soft + Rho1_hard - Rho1_soft      -42.0000000202
  Total charge density (r-space):              -0.0000000202
  Total Rho_soft + Rho0_soft (g-space):        -0.0000000458

  Overlap energy of the core charge distribution:               0.00005679330215
  Self energy of the core charge distribution:               -217.69203579805162
  Core Hamiltonian energy:                                    -41.50148294236487
  Hartree energy:                                             109.44106100514975
  Exchange-correlation energy:                                -11.26457866170350
  Hartree-Fock Exchange energy:                                -7.07055659084395
  Dispersion energy:                                           -0.00361824213726

  GAPW| Exc from hard and soft atomic rho1:                   -18.56303200059064
  GAPW| local Eh = 1 center integrals:                        -77.45516707678672

  Total energy:                                              -264.10935351402657

  outer SCF iter =    1 RMS gradient =   0.71E-08 energy =       -264.1093535140
  outer SCF loop converged in   1 iterations or   18 steps


 !-----------------------------------------------------------------------------!
                     Mulliken Population Analysis

 #  Atom  Element  Kind  Atomic population                           Net charge
       1     n        1          7.205492                             -0.205492
       2     n        1          7.007227                             -0.007227
       3     c        2          6.014353                             -0.014353
       4     c        2          6.013594                             -0.013594
       5     c        2          6.010986                             -0.010986
       6     c        2          6.160300                             -0.160300
       7     h        3          0.890311                              0.109689
       8     h        3          0.887809                              0.112191
       9     h        3          0.864657                              0.135343
      10     h        3          0.945271                              0.054729
 # Total charge                             42.000000                  0.000000

 !-----------------------------------------------------------------------------!

 !-----------------------------------------------------------------------------!
                           Hirshfeld Charges

  #Atom  Element  Kind  Ref Charge     Population                    Net charge
      1       n      1       7.000          7.305                        -0.305
      2       n      1       7.000          7.254                        -0.254
      3       c      2       6.000          6.330                        -0.330
      4       c      2       6.000          6.358                        -0.358
      5       c      2       6.000          6.317                        -0.317
      6       c      2       6.000          6.361                        -0.361
      7       h      3       1.000          0.513                         0.487
      8       h      3       1.000          0.507                         0.493
      9       h      3       1.000          0.503                         0.497
     10       h      3       1.000          0.537                         0.463

  Total Charge                                                            0.014
 !-----------------------------------------------------------------------------!

 *******************************************************************************
 **                                                                           **
 **         ######## #######   #######   ######## #######  ########           **
 **            ##    ##     ## ##     ## ##       ##   ##     ##              **
 **            ##    ##     ## ##     ## ######   #######     ##              **
 **            ##    ##     ## ##     ## ##       ##          ##              **
 **            ##    #######   #######   ##       ##          ##              **
 **                                                                           **
 *******************************************************************************
 KERNEL|                                                                    FULL
 FUNCTIONAL| BECKE88:
 FUNCTIONAL| A. Becke, Phys. Rev. A 38, 3098 (1988) {LDA version}               
 FUNCTIONAL| LYP:
 FUNCTIONAL| C. Lee, W. Yang, R.G. Parr, Phys. Rev. B, 37, 785 (1988) {LDA versi
 FUNCTIONAL| on}                                                                
 FUNCTIONAL| VWN:
 FUNCTIONAL| S. H. Vosko, L. Wilk and M. Nusair, Can. J. Phys. 58, 1200 (1980) {
 FUNCTIONAL| LDA version}                                                       
 FUNCTIONAL| XALPHA:
 FUNCTIONAL| Dirac/Slater local exchange; parameter=  0.666 {LDA}               
 KERNEL|                                                          Exact Exchange
 KERNEL| Spin symmetry of excitations                                    Singlet
 TDDFPT| Number of states calculated                                           9
 TDDFPT| Number of Davidson iterations                                       100
 TDDFPT| Davidson iteration convergence                                0.367E-09
 TDDFPT| Max. number of Krylov space vectors                                5000
 TDDFPT| Molecular Orbitals:        Spin       AOs       Occ      Virt     Total
 TDDFPT|                               1       210        21       189       210
 
 -------------------------------------------------------------------------------
 -                            TDDFPT Initial Guess                             -
 -------------------------------------------------------------------------------
          State         Occupied      ->      Virtual          Excitation
          number         orbital              orbital          energy (eV)
 -------------------------------------------------------------------------------
             1               21                   22              3.07637
             2               21                   23              4.60716
             3               20                   22              5.10148
             4               19                   22              5.21974
             5               20                   23              6.63226
             6               19                   23              6.75052
             7               21                   24              6.97684
             8               18                   22              7.09516
             9               21                   25              7.15904

      Number of active states:                                       3969
 -------------------------------------------------------------------------------
 
 -------------------------------------------------------------------------------
 -                      TDDFPT WAVEFUNCTION OPTIMIZATION                       -
 -------------------------------------------------------------------------------

          Step            Time         Convergence           Conv. states
 -------------------------------------------------------------------------------

    State    Exc. energy (eV)      Convergence (eV)
        1       1.8577522            -1.2186E+00
        2       3.3672853            -1.2399E+00
        3       3.8535956            -1.2479E+00
        4       5.2802215             6.0486E-02
        5       5.7859820            -8.4628E-01
        6       6.0519956            -6.9852E-01
        7       6.4328220            -5.4402E-01
        8       7.9332316             8.3808E-01
        9       9.0701434             1.9111E+00

             1            10.5          7.0232E-02                      0

    State    Exc. energy (eV)      Convergence (eV)
        1       1.7928946            -6.4858E-02
        2       3.2920482            -7.5237E-02
        3       3.7805712            -7.3024E-02
        4       5.2001639            -8.0058E-02
        5       5.6015413            -1.8444E-01
        6       5.9200184            -1.3198E-01
        7       6.2319943            -2.0083E-01
        8       6.3804128            -1.5528E+00
        9       7.9142082            -1.1559E+00

             2            10.5          5.7065E-02                      0

    State    Exc. energy (eV)      Convergence (eV)
        1       1.7895510            -3.3437E-03
        2       3.2869831            -5.0651E-03
        3       3.7765197            -4.0516E-03
        4       5.1921936            -7.9704E-03
        5       5.5604021            -4.1139E-02
        6       5.8869483            -3.3070E-02
        7       6.0920124            -1.3998E-01
        8       6.3375922            -4.2821E-02
        9       6.9321587            -9.8205E-01

             3            10.5          3.6090E-02                      0

    State    Exc. energy (eV)      Convergence (eV)
        1       1.7894772            -7.3834E-05
        2       3.2868718            -1.1129E-04
        3       3.7763714            -1.4831E-04
        4       5.1918077            -3.8591E-04
        5       5.5577563            -2.6458E-03
        6       5.8813174            -5.6309E-03
        7       6.0773415            -1.4671E-02
        8       6.3338884            -3.7037E-03
        9       6.6524413            -2.7972E-01

             4            10.5          1.0279E-02                      0

    State    Exc. energy (eV)      Convergence (eV)
        1       1.7894765            -6.7618E-07
        2       3.2868706            -1.2823E-06
        3       3.7763690            -2.4015E-06
        4       5.1917950            -1.2635E-05
        5       5.5576966            -5.9647E-05
        6       5.8810775            -2.3981E-04
        7       6.0768463            -4.9516E-04
        8       6.3337054            -1.8298E-04
        9       6.6421944            -1.0247E-02

             5            10.5          3.7657E-04                      0

    State    Exc. energy (eV)      Convergence (eV)
        1       1.7894765            -6.5004E-09
        2       3.2868705            -1.4281E-08
        3       3.7763689            -3.6729E-08
        4       5.1917949            -1.6540E-07
        5       5.5576956            -1.0533E-06
        6       5.8810729            -4.6302E-06
        7       6.0768352            -1.1103E-05
        8       6.3336986            -6.8322E-06
        9       6.6417790            -4.1538E-04

             6            10.5          1.5265E-05                      1

    State    Exc. energy (eV)      Convergence (eV)
        1       1.7894765            -4.2080E-11
        2       3.2868705            -1.1697E-10
        3       3.7763689            -3.7017E-10
        4       5.1917949            -2.4280E-09
        5       5.5576956            -1.9480E-08
        6       5.8810728            -1.0000E-07
        7       6.0768350            -2.3846E-07
        8       6.3336984            -1.9971E-07
        9       6.6417595            -1.9454E-05

             7            10.5          7.1492E-07                      4

    State    Exc. energy (eV)      Convergence (eV)
        1       1.7894765            -2.8511E-13
        2       3.2868705            -1.0139E-12
        3       3.7763689            -3.4727E-12
        4       5.1917949            -3.1090E-11
        5       5.5576956            -2.6607E-10
        6       5.8810728            -1.6403E-09
        7       6.0768350            -3.7806E-09
        8       6.3336984            -3.6496E-09
        9       6.6417590            -5.4582E-07

             8            10.5          2.0059E-08                      8

    State    Exc. energy (eV)      Convergence (eV)
        1       1.7894765            -3.0211E-15
        2       3.2868705             7.1750E-15
        3       3.7763689            -2.2658E-14
        4       5.1917949            -3.1948E-13
        5       5.5576956            -3.4010E-12
        6       5.8810728            -2.0879E-11
        7       6.0768350            -4.6926E-11
        8       6.3336984            -4.7989E-11
        9       6.6417590            -1.2359E-08

             9            10.5          4.5419E-10                      8

    State    Exc. energy (eV)      Convergence (eV)
        1       1.7894765             1.5105E-15
        2       3.2868705            -1.5105E-15
        3       3.7763689            -5.2869E-15
        4       5.1917949             0.0000E+00
        5       5.5576956            -3.0211E-14
        6       5.8810728            -2.4924E-13
        7       6.0768350            -6.3745E-13
        8       6.3336984            -7.4243E-13
        9       6.6417590            -2.0193E-10

            10            10.4          7.4210E-12                      9
 ------------------------- Restart Davidson iterations -------------------------

    State    Exc. energy (eV)      Convergence (eV)
        1       1.7894765             3.3987E-15
        2       3.2868705            -9.4408E-15
        3       3.7763689             8.3079E-15
        4       5.1917949             1.5105E-15
        5       5.5576956             7.5527E-16
        6       5.8810728             2.1147E-14
        7       6.0768350             1.0574E-14
        8       6.3336984            -1.8126E-14
        9       6.6417590            -7.5527E-15

            11            10.4          7.7716E-16                      9
 
 -------------------------------------------------------------------------------
 -  TDDFPT run converged in 11 iteration(s) 
 -------------------------------------------------------------------------------

 R-TDDFPT states of multiplicity 1
 Transition dipoles calculated using length formulation

         State    Excitation        Transition dipole (a.u.)        Oscillator
         number   energy (eV)       x           y           z     strength (a.u.)
         ------------------------------------------------------------------------
 TDDFPT|      1       1.78948  -1.4227E-01 -1.6147E-01 -6.9043E-02   2.23943E-03
 TDDFPT|      2       3.28687   1.2979E-01 -2.1761E-02 -8.4893E-02   1.97499E-03
 TDDFPT|      3       3.77637   4.8629E-02  1.3963E-01  1.2013E-01   3.35788E-03
 TDDFPT|      4       5.19179  -1.9020E-02 -5.2304E-03 -9.1760E-02   1.12048E-03
 TDDFPT|      5       5.55770  -1.4226E-01 -5.3914E-01  4.5636E-01   7.06912E-02
 TDDFPT|      6       5.88107  -1.4028E-01  8.6487E-02 -2.8991E-01   1.60232E-02
 TDDFPT|      7       6.07683   4.6930E-01  1.0040E+00 -1.3441E-01   1.85548E-01
 TDDFPT|      8       6.33370   1.1905E-02  4.2809E-01 -8.0700E-01   1.29515E-01
 TDDFPT|      9       6.64176  -1.2062E-01 -4.5644E-01  7.2726E-01   1.22332E-01

 TDDFPT : CheckSum  =  0.571512E+00
 
 -------------------------------------------------------------------------------
 -                            Excitation analysis                              -
 -------------------------------------------------------------------------------
        State             Occupied              Virtual             Excitation
        number             orbital              orbital             amplitude
 -------------------------------------------------------------------------------
             1   1.78948 eV
                                21                   22              -0.993166
                                19                   22               0.077356
             2   3.28687 eV
                                21                   23               0.990872
                                19                   23              -0.069661
                                20                   22               0.052060
                                19                   22               0.051480
             3   3.77637 eV
                                20                   22               0.988139
                                18                   22               0.079103
                                19                   22              -0.068208
                                19                   23               0.064299
             4   5.19179 eV
                                20                   23               0.965313
                                21                   24              -0.147289
                                19                   23              -0.134119
                                21                   26               0.110318
             5   5.55770 eV
                                19                   23              -0.592755
                                18                   22               0.554097
                                19                   22              -0.516805
                                18                   23              -0.140655
                                21                   25               0.113932
                                21                   26              -0.109617
                                20                   23              -0.085555
             6   5.88107 eV
                                21                   24              -0.903981
                                21                   26               0.303028
                                20                   23              -0.195428
                                21                   25               0.174622
                                18                   22               0.059469
                                19                   22               0.059182
                                21                   27              -0.054753
             7   6.07683 eV
                                19                   22               0.732040
                                19                   23              -0.439126
                                18                   22               0.336344
                                21                   25              -0.171130
                                21                   24               0.112246
                                18                   23               0.102543
                                21                   26               0.093257
                                20                   23              -0.085522
                                21                   28              -0.074067
                                21                   29              -0.069822
                                21                   39              -0.069063
                                21                   23              -0.068470
                                20                   24              -0.067871
                                17                   22               0.059689
                                21                   22               0.056234
                                16                   23               0.054579
             8   6.33370 eV
                                21                   25               0.939046
                                21                   24               0.213416
                                19                   22               0.138569
                                18                   22              -0.127194
                                18                   23               0.102771
                                19                   23              -0.090687
                                21                   26               0.057844
                                21                   28              -0.053741
             9   6.64176 eV
                                21                   26               0.896325
                                21                   24               0.299650
                                18                   22               0.141270
                                19                   22              -0.129037
                                19                   23               0.128967
                                18                   23              -0.099510
                                21                   27              -0.065395
                                21                   25              -0.064394
                                20                   24               0.057419
                                21                   28              -0.052492
                                16                   22              -0.050847
 -------------------------------------------------------------------------------
 
 -------------------------------------------------------------------------------
 -                            Natural Orbital analysis                         -
 -------------------------------------------------------------------------------
   STATE NR.      1             1.78948 eV
     Particle-Hole state: 1   Spin:1     Eigenvalue: 0.99554   Sum Eigv: 0.99554
   STATE NR.      2             3.28687 eV
     Particle-Hole state: 1   Spin:1     Eigenvalue: 0.99117   Sum Eigv: 0.99117
   STATE NR.      3             3.77637 eV
     Particle-Hole state: 1   Spin:1     Eigenvalue: 0.98916   Sum Eigv: 0.98916
   STATE NR.      4             5.19179 eV
     Particle-Hole state: 1   Spin:1     Eigenvalue: 0.95546   Sum Eigv: 0.95546
     Particle-Hole state: 2   Spin:1     Eigenvalue: 0.04051   Sum Eigv: 0.99597
   STATE NR.      5             5.55770 eV
     Particle-Hole state: 1   Spin:1     Eigenvalue: 0.73243   Sum Eigv: 0.73243
     Particle-Hole state: 2   Spin:1     Eigenvalue: 0.22884   Sum Eigv: 0.96127
     Particle-Hole state: 3   Spin:1     Eigenvalue: 0.03118   Sum Eigv: 0.99245
   STATE NR.      6             5.88107 eV
     Particle-Hole state: 1   Spin:1     Eigenvalue: 0.94721   Sum Eigv: 0.94721
     Particle-Hole state: 2   Spin:1     Eigenvalue: 0.04118   Sum Eigv: 0.98838
   STATE NR.      7             6.07683 eV
     Particle-Hole state: 1   Spin:1     Eigenvalue: 0.81845   Sum Eigv: 0.81845
     Particle-Hole state: 2   Spin:1     Eigenvalue: 0.08242   Sum Eigv: 0.90087
     Particle-Hole state: 3   Spin:1     Eigenvalue: 0.06730   Sum Eigv: 0.96817
     Particle-Hole state: 4   Spin:1     Eigenvalue: 0.01172   Sum Eigv: 0.97988
   STATE NR.      8             6.33370 eV
     Particle-Hole state: 1   Spin:1     Eigenvalue: 0.93739   Sum Eigv: 0.93739
     Particle-Hole state: 2   Spin:1     Eigenvalue: 0.05607   Sum Eigv: 0.99345
   STATE NR.      9             6.64176 eV
     Particle-Hole state: 1   Spin:1     Eigenvalue: 0.91242   Sum Eigv: 0.91242
     Particle-Hole state: 2   Spin:1     Eigenvalue: 0.06819   Sum Eigv: 0.98060
 -------------------------------------------------------------------------------
 Ground state orbital alignment:         1.000000[MinVal]      1.000000[Average]
 Excitation vector alignment:                                           1.000000
[...]
  max size                          31.744000E+03
  average size                       7.589947E+03
 MPI breakdown and total messages size (bytes):
             size <=      128               84084                        0
       128 < size <=     8192               12180                 83508768
      8192 < size <=    32768               53592               1053890208
     32768 < size <=   131072                   0                        0
    131072 < size <=  4194304                   0                        0
   4194304 < size <= 16777216                   0                        0
  16777216 < size                               0                        0
 -------------------------------------------------------------------------------
 -                                                                             -
 -                      DBCSR MESSAGE PASSING PERFORMANCE                      -
 -                                                                             -
 -------------------------------------------------------------------------------
 ROUTINE             CALLS      AVE VOLUME [Bytes]
 MP_Bcast               28                     12.
 MP_Allreduce         6723                      8.
 MP_Alltoall         25907                   2757.
 MP_ISend            24972                   3574.
 MP_IRecv            24972                   3285.
 -------------------------------------------------------------------------------

 -------------------------------------------------------------------------------
 -                                                                             -
 -                                DBM STATISTICS                               -
 -                                                                             -
 -------------------------------------------------------------------------------
    M  x    N  x    K                                          COUNT     PERCENT
 -------------------------------------------------------------------------------

 -------------------------------------------------------------------------------
 -                                                                             -
 -                                GRID STATISTICS                              -
 -                                                                             -
 -------------------------------------------------------------------------------
 LP    KERNEL             BACKEND                              COUNT     PERCENT
 1     collocate ortho    CPU                                 269560      15.93%
 2     collocate ortho    CPU                                 219420      12.97%
 1     integrate ortho    CPU                                 208112      12.30%
 0     collocate ortho    CPU                                 187680      11.09%
 2     integrate ortho    CPU                                 173464      10.25%
 3     collocate ortho    CPU                                 147890       8.74%
 0     integrate ortho    CPU                                 140352       8.30%
 3     integrate ortho    CPU                                 118228       6.99%
 4     collocate ortho    CPU                                  63480       3.75%
 4     integrate ortho    CPU                                  52616       3.11%
 4     collocate general  CPU                                  22272       1.32%
 5     collocate ortho    CPU                                  19320       1.14%
 5     integrate ortho    CPU                                  16656       0.98%
 4     integrate general  CPU                                  16512       0.98%
 2     collocate general  CPU                                  14848       0.88%
 2     integrate general  CPU                                  11008       0.65%
 6     collocate ortho    CPU                                   4830       0.29%
 6     integrate ortho    CPU                                   4284       0.25%
 5     integrate general  CPU                                    384       0.02%
 3     integrate general  CPU                                    256       0.02%
 7     integrate ortho    CPU                                    168       0.01%
 0     collocate general  CPU                                    160       0.01%
 0     integrate general  CPU                                    160       0.01%
 -------------------------------------------------------------------------------

 MEMORY| Estimated peak process memory [MiB]                                1280

 -------------------------------------------------------------------------------
 ----                             MULTIGRID INFO                            ----
 -------------------------------------------------------------------------------
 count for grid        1:         109550          cutoff [a.u.]          200.00
 count for grid        2:          22507          cutoff [a.u.]           66.67
 count for grid        3:           8627          cutoff [a.u.]           22.22
 count for grid        4:           1858          cutoff [a.u.]            7.41
 total gridlevel count  :         142542

 -------------------------------------------------------------------------------
 -                                                                             -
 -                         MESSAGE PASSING PERFORMANCE                         -
 -                                                                             -
 -------------------------------------------------------------------------------

 ROUTINE             CALLS      AVE VOLUME [Bytes]
 MP_Group                5
 MP_Bcast             5118                 919091.
 MP_Allreduce        15324                 145959.
 MP_Sync              1449
 MP_Alltoall          4500               15024089.
 MP_SendRecv         10410                 234078.
 MP_ISendRecv        16515                 127066.
 MP_Wait             35545
 MP_comm_split          51
 MP_ISend            16407                 822566.
 MP_IRecv            16572                 813962.
 -------------------------------------------------------------------------------


 -------------------------------------------------------------------------------
 -                                                                             -
 -                           R E F E R E N C E S                               -
 -                                                                             -
 -------------------------------------------------------------------------------
 
 CP2K version 2024.1 (Development Version), the CP2K developers group (2024).
 CP2K is freely available from https://www.cp2k.org/ .

 Kuehne,Thomas D.; Iannuzzi,Marcella; Del Ben,Mauro;
 Rybkin,Vladimir V.; Seewald,Patrick; Stein,Frederick; Laino,Teodoro;
 Khaliullin,Rustam Z.; Schuett,Ole; Schiffmann,Florian; Golze,Dorothea;
 Wilhelm,Jan; Chulkov,Sergey; Bani-Hashemian,Mohammad Hossein;
 Weber,Valery; Borstnik,Urban; Taillefumier,Mathieu;
 Jakobovits,Alice Shoshana; Lazzaro,Alfio; Pabst,Hans; Mueller,Tiziano;
 Schade,Robert; Guidon,Manuel; Andermatt,Samuel; Holmberg,Nico;
 Schenter,Gregory K.; Hehn,Anna; Bussy,Augustin; Belleflamme,Fabian;
 Tabacchi,Gloria; Gloess,Andreas; Lass,Michael; Bethune,Iain;
 Mundy,Christopher J.; Plessl,Christian; Watkins,Matt;
 VandeVondele,Joost; Krack,Matthias; Hutter,Juerg. 
 The Journal of Chemical Physics, 152 (19), (2020). 
 CP2K: An electronic structure and molecular dynamics software package -
 Quickstep: Efficient and accurate electronic structure calculations.
 https://doi.org/10.1063/5.0007045

 Goerigk, Lars; Hansen, Andreas; Bauer, Christoph; Ehrlich, Stephan;
 Najibi, Asim; Grimme, Stefan. , 19 (48), (2017). 
 A look at the density functional theory zoo with the advanced GMTKN55 database
 for general main group thermochemistry, kinetics and noncovalent interactions.
 https://doi.org/10.1039/C7CP04913G

 Schuett, Ole; Messmer, Peter; Hutter, Juerg; VandeVondele, Joost. 
 Electronic Structure Calculations on Graphics Processing Units, John
 Wiley & Sons, Ltd, 173-190 (2016). 
 GPU-Accelerated Sparse Matrix-Matrix Multiplication for
 Linear Scaling Density Functional Theory.
 https://doi.org/10.1002/9781118670712.ch8

 Heinecke, A; Henry, G; Hutchinson, M; Pabst, H. 
 Proceedings of Intl. Supercomputing Conference, 981-991 (2016). 
 LIBXSMM: Accelerating Small Matrix Multiplications
 by Runtime Code Generation.
 https://doi.org/10.1109/SC.2016.83

 Borstnik, U; VandeVondele, J; Weber, V; Hutter, J. 
 PARALLEL COMPUTING, 40 (5-6), 47-58 (2014). 
 Sparse matrix multiplication: The distributed block-compressed sparse
 row library.
 https://doi.org/10.1016/j.parco.2014.03.012

 Hutter, J; Iannuzzi, M; Schiffmann, F; VandeVondele, J. 
 WIREs Comput Mol Sci., 4 (1), 15-25 (2014). 
 CP2K: atomistic simulations of condensed matter systems.
 https://doi.org/10.1002/wcms.1159

 Grimme, S; Ehrlich, S; Goerigk, L. 
 JOURNAL OF COMPUTATIONAL CHEMISTRY, 32, 1456 (2011). 
 Effect of the damping function in dispersion corrected density functional theory.
 https://doi.org/10.1002/jcc.21759

 Grimme, S; Antony, J; Ehrlich, S; Krieg, H. 
 JOURNAL OF CHEMICAL PHYSICS, 132 (15), 154104 (2010). 
 A consistent and accurate ab initio parametrization of density
 functional dispersion correction (DFT-D) for the 94 elements H-Pu.
 https://doi.org/10.1063/1.3382344

 Guidon, M; Hutter, J; VandeVondele, J. 
 JOURNAL OF CHEMICAL THEORY AND COMPUTATION, 5 (11), 3010-3021 (2009). 
 Robust Periodic Hartree-Fock Exchange for Large-Scale Simulations Using
 Gaussian Basis Sets.
 https://doi.org/10.1021/ct900494g

 Guidon, M; Schiffmann, F; Hutter, J; VandeVondele, J. 
 JOURNAL OF CHEMICAL PHYSICS, 128 (21), 214104 (2008). 
 Ab initio molecular dynamics using hybrid density functionals.
 https://doi.org/10.1063/1.2931945

 VandeVondele, J; Hutter, J. 
 JOURNAL OF CHEMICAL PHYSICS, 127 (11), 114105 (2007). 
 Gaussian basis sets for accurate calculations on molecular systems in
 gas and condensed phases.
 https://doi.org/10.1063/1.2770708

 Frigo, M; Johnson, SG. 
 PROCEEDINGS OF THE IEEE, 93 (2), 216-231 (2005). 
 The design and implementation of FFTW3.
 https://doi.org/10.1109/JPROC.2004.840301

 Iannuzzi, M; Chassaing, T; Wallman, T; Hutter, J. 
 CHIMIA, 59 (7-8), 499-503 (2005). 
 Ground and excited state density functional calculations with the
 Gaussian and augmented-plane-wave method.
 https://doi.org/10.2533/000942905777676164

 VandeVondele, J; Hutter, J. 
 JOURNAL OF CHEMICAL PHYSICS, 118 (10), 4365-4369 (2003). 
 An efficient orbital transformation method for electronic structure
 calculations.
 https://doi.org/10.1063/1.1543154

 Martin,Richard L.. 
 The Journal of Chemical Physics, 118 (11), 4775-4777 (2003). 
 Natural transition orbitals.
 https://doi.org/10.1063/1.1558471

 Lippert, G; Hutter, J; Parrinello, M. 
 THEORETICAL CHEMISTRY ACCOUNTS, 103 (2), 124-140 (1999). 
 The Gaussian and augmented-plane-wave density functional method for ab
 initio molecular dynamics simulations.
 https://doi.org/10.1007/s002140050523

 Krack, M; Parrinello, M. 
 PHYSICAL CHEMISTRY CHEMICAL PHYSICS, 2 (10), 2105-2112 (2000). 
 All-electron ab-initio molecular dynamics.
 https://doi.org/10.1039/b001167n

 Martyna, GJ; Tuckerman, ME. 
 JOURNAL OF CHEMICAL PHYSICS, 110 (6), 2810-2821 (1999). 
 A reciprocal space based method for treating long range interactions in
 ab initio and force-field-based calculations in clusters.
 https://doi.org/10.1063/1.477923

 BECKE, AD. PHYSICAL REVIEW A, 38 (6), 3098-3100 (1988). 
 DENSITY-FUNCTIONAL EXCHANGE-ENERGY APPROXIMATION WITH CORRECT
 ASYMPTOTIC-BEHAVIOR.
 https://doi.org/10.1103/PhysRevA.38.3098

 LEE, CT; YANG, WT; PARR, RG. 
 PHYSICAL REVIEW B, 37 (2), 785-789 (1988). 
 DEVELOPMENT OF THE COLLE-SALVETTI CORRELATION-ENERGY FORMULA INTO A
 FUNCTIONAL OF THE ELECTRON-DENSITY.
 https://doi.org/10.1103/PhysRevB.37.785

 VOSKO, SH; WILK, L; NUSAIR, M. 
 CANADIAN JOURNAL OF PHYSICS, 58 (8), 1200-1211 (1980). 
 ACCURATE SPIN-DEPENDENT ELECTRON LIQUID CORRELATION ENERGIES FOR LOCAL
 SPIN-DENSITY CALCULATIONS - A CRITICAL ANALYSIS.
 https://doi.org/10.1139/p80-159


 -------------------------------------------------------------------------------
 -                                                                             -
 -                                T I M I N G                                  -
 -                                                                             -
 -------------------------------------------------------------------------------
 SUBROUTINE                       CALLS  ASD         SELF TIME        TOTAL TIME
                                MAXIMUM       AVERAGE  MAXIMUM  AVERAGE  MAXIMUM
 CP2K                                 1  1.0    0.015    0.022  287.738  287.738
 qs_forces                            1  2.0    0.000    0.001  286.735  286.736
 qs_energies                          1  3.0    0.000    0.000  174.423  174.423
 qs_energies_properties               1  4.0    0.000    0.000  150.994  150.994
 tddfpt                               1  5.0    0.000    0.000  150.994  150.994
 tddfpt_energies                      1  6.0    0.000    0.000  115.967  115.968
 tddfpt_davidson_solver               2  7.0    0.002    0.003  115.228  115.228
 tddfpt_compute_Aop_evects           11  8.0    0.000    0.000  114.870  114.871
 excited_state_energy                 2  3.5    0.001    0.002   98.900   98.900
 fft_wrap_pw1pw2                   4070 12.0    0.045    0.058   79.051   83.958
 fft_wrap_pw1pw2_200               2839 13.3    2.434    2.495   76.684   81.470
 response_equation                    1  4.0    0.000    0.000   77.049   77.049
 linres_solver                        1  5.0    0.001    0.004   77.015   77.015
 apply_op                            54  6.0    0.002    0.002   76.930   76.931
 fhxc_kernel                         11  9.0    0.004    0.004   72.914   72.914
 fft3d_ps                          4070 14.0   33.049   34.665   58.135   63.138
 integrate_four_center              274 10.5    0.059    0.061   62.339   62.350
 integrate_four_center_main         274 11.5    0.024    0.032   57.354   59.143
 integrate_four_center_bin        26030 12.5   57.330   59.124   57.330   59.124
 derivatives_four_center              4  8.5    0.004    0.006   50.714   51.285
 derivatives_four_center_main         4  9.5    0.000    0.001   50.624   51.195
 derivatives_four_center_bin        416 10.5   48.519   50.808   48.519   50.808
 xc_pw_derive                      1464 12.3    0.012    0.013   43.563   45.620
 apply_op_2_dft                      53  7.0    0.003    0.004   45.070   45.183
 tddfpt_apply_hfx                    11  9.0    0.001    0.002   41.845   41.845
 tddft_hfx_matrix                   198 10.0    0.004    0.005   41.423   41.424
 prepare_gapw_den                   236  8.6    0.006    0.007   37.593   37.771
 tddfpt_forces_main                   1  6.0    0.000    0.000   34.947   34.947
 rebuild_ks_matrix                   19  6.8    0.000    0.000   34.247   34.247
 qs_ks_build_kohn_sham_matrix        19  7.8    0.003    0.003   34.247   34.247
 tddfpt_forces                        1  7.0    0.000    0.000   33.622   33.622
 tddfpt_force_direct                  1  8.0    0.000    0.000   33.017   33.018
 tddfpt_kernel_force                  1  9.0    0.000    0.000   33.007   33.007
 fhxc_force                           1 10.0    0.001    0.001   33.007   33.007
 xc_pw_divergence                   216 12.2    0.006    0.006   26.303   28.633
 qs_rho_update_rho_low              225  8.5    0.002    0.002   25.332   25.334
 calculate_rho_elec                 230  9.4    0.379    0.405   25.328   25.333
 qs_fxc_analytic                     54  8.0    0.002    0.003   24.935   25.019
 tddfpt_apply_xc_analytic            99 10.0    1.133    1.268   23.073   23.270
 scf_env_do_scf                       1  4.0    0.000    0.000   23.223   23.223
 calculate_rho0_atom                696  9.7   20.788   22.168   20.788   22.168
 response_force                       1  4.0    0.005    0.007   21.849   21.850
 xc_rho_set_and_dset_create         118 11.9    2.153    2.471   18.159   21.759
 hfx_ks_matrix                       19  8.8    0.001    0.001   21.276   21.276
 qs_ks_update_qs_env                 20  6.0    0.000    0.000   20.895   20.896
 density_rs2pw                      230 10.4    0.009    0.010   19.735   20.677
 xc_calc_2nd_deriv_analytical       802 11.0    1.691    1.870   20.222   20.521
 mp_alltoall_z22v                  4070 16.0   13.631   20.431   13.631   20.431
 yz_to_x                           2091 15.1    4.763    5.054   13.936   19.406
 integrate_v_rspace                 180  9.3    0.004    0.004   17.316   18.309
 xc_calc_2nd_deriv                   55  8.9    0.631    0.753   15.804   18.024
 scf_env_do_scf_inner_loop           18  5.0    0.000    0.001   17.395   17.396
 qs_vxc_create                       62 11.7    0.001    0.001   17.225   17.232
 xc_vxc_pw_create                    62 12.7    0.178    0.189   17.224   17.231
 tddfpt_apply_coulomb                99 10.0    0.002    0.002   12.189   13.677
 qs_ks_update_qs_env_forces           1  3.0    0.000    0.000   13.353   13.353
 potential_pw2rs                    180 10.3    0.018    0.019   12.028   13.026
 x_to_yz                           1979 14.9    6.628    7.552   11.087   12.302
 qs_fgxc_gdiff                        1 11.0    0.000    0.000   11.869   11.870
 qs_fxc_fdiff                         7 12.0    0.001    0.001   11.839   11.840
 xc_prep_2nd_deriv                   56  8.9    0.000    0.000    9.744   11.679
 apply_hfx                           53  7.0    0.001    0.001   11.220   11.229
 hfx_matrix                          53  8.0    0.001    0.001   11.215   11.224
 put_rho0_on_grid                   232  9.7    0.424    0.473   10.827   11.049
 transfer_rs2pw                    1153 11.3    0.012    0.015    9.614   10.635
 pw_gather_p                       2091 14.1    8.873    9.084    8.873    9.084
 transfer_rs2pw_200                 463 12.0    3.696    3.788    7.585    8.667
 integrate_vhg0_rspace              176  9.8    1.904    2.034    8.146    8.160
 transfer_pw2rs                     897 11.2    0.008    0.009    7.864    7.887
 xc_functional_eval                3400 11.8    0.004    0.008    4.217    7.736
 pw_poisson_solve                   177  9.7    0.003    0.004    5.940    7.452
 mp_sum_d                          2377  9.2    4.338    7.089    4.338    7.089
 pw_scatter_p                      1979 13.9    6.604    6.699    6.604    6.699
 mp_waitany                       16400 13.0    5.453    6.627    5.453    6.627
 grid_collocate_task_list           230 10.4    4.819    6.534    4.819    6.534
 transfer_pw2rs_200                 357 12.0    3.031    3.067    6.086    6.138
 p_env_update_rho                    53  7.0    0.000    0.000    5.959    5.959
 calculate_rho_atom                 708  9.6    3.578    5.884    3.578    5.884
 init_scf_loop                        1  5.0    0.000    0.000    5.827    5.827
 -------------------------------------------------------------------------------

 The number of warnings for this run is : 0
 
 -------------------------------------------------------------------------------
  **** **** ******  **  PROGRAM ENDED AT                 2025-01-08 18:51:47.413
 ***** ** ***  *** **   PROGRAM RAN ON                               nesh-clk410
 **    ****   ******    PROGRAM RAN BY                                  suphc356
 ***** **    ** ** **   PROGRAM PROCESS ID                               1383449
  **** **  *******  **  PROGRAM STOPPED IN /gxfs_work/cau/suphc356/NEWTONX_proje
                                           ct/Pyrazin_molecule/CP2K_GAPW_B3LYP_d
                                           ef2_TZVP/MOLDYN_BA_again/TRAJECTORIES
                                           /TRAJ168/TEMP
