 DBCSR| CPU Multiplication driver                                           XSMM (U)
 DBCSR| Multrec recursion limit                                              512 (U)
 DBCSR| Multiplication stack size                                           1000 (D)
 DBCSR| Maximum elements for images                                    UNLIMITED (U)
 DBCSR| Multiplicative factor virtual images                                   1 (U)
 DBCSR| Use multiplication densification                                       T (D)
 DBCSR| Multiplication size stacks                                             3 (U)
 DBCSR| Use memory pool for CPU allocation                                     F (U)
 DBCSR| Number of 3D layers                                               SINGLE (U)
 DBCSR| Use MPI memory allocation                                              F (U)
 DBCSR| Use RMA algorithm                                                      F (U)
 DBCSR| Use Communication thread                                               T (U)
 DBCSR| Communication thread load                                             87 (D)
 DBCSR| MPI: My process id                                                     0
 DBCSR| MPI: Number of processes                                              16
 DBCSR| OMP: Current number of threads                                         1
 DBCSR| OMP: Max number of threads                                             1
 DBCSR| Split modifier for TAS multiplication algorithm                  1.0E+00 (U)


  **** **** ******  **  PROGRAM STARTED AT               2025-01-06 11:02:49.117
 ***** ** ***  *** **   PROGRAM STARTED ON                           nesh-srp122
 **    ****   ******    PROGRAM STARTED BY                              suphc356
 ***** **    ** ** **   PROGRAM PROCESS ID                               2040889
  **** **  *******  **  PROGRAM STARTED IN /gxfs_work/cau/suphc356/NEWTONX_proje
                                           ct/Pyrazin_molecule/CP2K_GAPW_B3LYP_d
                                           ef2_TZVP/MOLDYN_BA_again/TRAJECTORIES
                                           /TRAJ93/TEMP

 CP2K| version string:                 CP2K version 2024.1 (Development Version)
 CP2K| source code revision number:                                  git:990486a
 CP2K| cp2kflags: omp libint fftw3 libxc libgrpp parallel mpi_f08 scalapack cosm
 CP2K|            a xsmm spglib mkl
 CP2K| is freely available from                            https://www.cp2k.org/
 CP2K| Program compiled at                          Mon Mar 11 08:48:45 CET 2024
 CP2K| Program compiled on                                           nesh-login2
 CP2K| Program compiled for                                                local
 CP2K| Data directory path                 /gxfs_work/cau/suphc356/cp2k_gcc/data
 CP2K| Input file name                                                  cp2k.inp

 GLOBAL| Force Environment number                                              1
 GLOBAL| Basis set file name                                     EMSL_BASIS_SETS
 GLOBAL| Potential file name                                      ALL_POTENTIALS
 GLOBAL| MM Potential file name                                     MM_POTENTIAL
 GLOBAL| Coordinate file name                                      __STD_INPUT__
 GLOBAL| Method name                                                        CP2K
 GLOBAL| Project name                                               testsuite_ad
 GLOBAL| Run type                                                   ENERGY_FORCE
 GLOBAL| FFT library                                                       FFTW3
 GLOBAL| Diagonalization library                                       ScaLAPACK
 GLOBAL| DGEMM library                                                      BLAS
 GLOBAL| Orthonormality check for eigenvectors                          DISABLED
 GLOBAL| Matrix multiplication library                                     COSMA
 GLOBAL| All-to-all communication in single precision                          F
 GLOBAL| FFTs using library dependent lengths                                  F
 GLOBAL| Grid backend                                                       AUTO
 GLOBAL| Global print level                                               MEDIUM
 GLOBAL| MPI I/O enabled                                                       T
 GLOBAL| Total number of message passing processes                            16
 GLOBAL| Number of threads for this process                                    1
 GLOBAL| This output is from process                                           0
 GLOBAL| Stack size for threads created by OpenMP (OMP_STACKSIZE)           256M
 GLOBAL| CPU model name                              Intel(R) Xeon(R) Gold 6426Y
 GLOBAL| CPUID                                                              1003
 GLOBAL| Compiled for CPUID                                                    0

 *** HINT in environment.F:920 :: The compiler target flags (generic) used ***
 *** to build this binary cannot exploit all extensions of this CPU model  ***
 *** (x86_avx512). Consider compiler target flags as part of FCFLAGS and   ***
 *** CFLAGS (ARCH file).                                                   ***


 MEMORY| system memory details [Kb]
 MEMORY|                        rank 0           min           max       average
 MEMORY| MemTotal            263786136     263786136     263786136     263786136
 MEMORY| MemFree             247385560     247385560     247385560     247385560
 MEMORY| Buffers                829468        829468        829468        829468
 MEMORY| Cached                 826368        826368        826368        826368
 MEMORY| Slab                   867724        867724        867724        867724
 MEMORY| SReclaimable           146560        146560        146560        146560
 MEMORY| MemLikelyFree       249187956     249187956     249187956     249187956


 *** Fundamental physical constants (SI units) ***

 *** Literature: B. J. Mohr and B. N. Taylor,
 ***             CODATA recommended values of the fundamental physical
 ***             constants: 2006, Web Version 5.1
 ***             http://physics.nist.gov/constants

 Speed of light in vacuum [m/s]                             2.99792458000000E+08
 Magnetic constant or permeability of vacuum [N/A**2]       1.25663706143592E-06
 Electric constant or permittivity of vacuum [F/m]          8.85418781762039E-12
 Planck constant (h) [J*s]                                  6.62606896000000E-34
 Planck constant (h-bar) [J*s]                              1.05457162825177E-34
 Elementary charge [C]                                      1.60217648700000E-19
 Electron mass [kg]                                         9.10938215000000E-31
 Electron g factor [ ]                                     -2.00231930436220E+00
 Proton mass [kg]                                           1.67262163700000E-27
 Fine-structure constant                                    7.29735253760000E-03
 Rydberg constant [1/m]                                     1.09737315685270E+07
 Avogadro constant [1/mol]                                  6.02214179000000E+23
 Boltzmann constant [J/K]                                   1.38065040000000E-23
 Atomic mass unit [kg]                                      1.66053878200000E-27
 Bohr radius [m]                                            5.29177208590000E-11

 *** Conversion factors ***

 [u] -> [a.u.]                                              1.82288848426455E+03
 [Angstrom] -> [Bohr] = [a.u.]                              1.88972613288564E+00
 [a.u.] = [Bohr] -> [Angstrom]                              5.29177208590000E-01
 [a.u.] -> [s]                                              2.41888432650478E-17
 [a.u.] -> [fs]                                             2.41888432650478E-02
 [a.u.] -> [J]                                              4.35974393937059E-18
 [a.u.] -> [N]                                              8.23872205491840E-08
 [a.u.] -> [K]                                              3.15774647902944E+05
 [a.u.] -> [kJ/mol]                                         2.62549961709828E+03
 [a.u.] -> [kcal/mol]                                       6.27509468713739E+02
 [a.u.] -> [Pa]                                             2.94210107994716E+13
 [a.u.] -> [bar]                                            2.94210107994716E+08
 [a.u.] -> [atm]                                            2.90362800883016E+08
 [a.u.] -> [eV]                                             2.72113838565563E+01
 [a.u.] -> [Hz]                                             6.57968392072181E+15
 [a.u.] -> [1/cm] (wave numbers)                            2.19474631370540E+05
 [a.u./Bohr**2] -> [1/cm]                                   5.14048714338585E+03
 

 CELL_TOP| Volume [angstrom^3]:                                      2744.000000
 CELL_TOP| Vector a [angstrom    14.000     0.000     0.000   |a| =    14.000000
 CELL_TOP| Vector b [angstrom     0.000    14.000     0.000   |b| =    14.000000
 CELL_TOP| Vector c [angstrom     0.000     0.000    14.000   |c| =    14.000000
 CELL_TOP| Angle (b,c), alpha [degree]:                                90.000000
 CELL_TOP| Angle (a,c), beta  [degree]:                                90.000000
 CELL_TOP| Angle (a,b), gamma [degree]:                                90.000000
 CELL_TOP| Numerically orthorhombic:                                         YES
 CELL_TOP| Periodicity                                                      NONE

 CELL| Volume [angstrom^3]:                                          2744.000000
 CELL| Vector a [angstrom]:      14.000     0.000     0.000   |a| =    14.000000
 CELL| Vector b [angstrom]:       0.000    14.000     0.000   |b| =    14.000000
 CELL| Vector c [angstrom]:       0.000     0.000    14.000   |c| =    14.000000
 CELL| Angle (b,c), alpha [degree]:                                    90.000000
 CELL| Angle (a,c), beta  [degree]:                                    90.000000
 CELL| Angle (a,b), gamma [degree]:                                    90.000000
 CELL| Numerically orthorhombic:                                             YES
 CELL| Periodicity                                                          NONE

 CELL_REF| Volume [angstrom^3]:                                      2744.000000
 CELL_REF| Vector a [angstrom    14.000     0.000     0.000   |a| =    14.000000
 CELL_REF| Vector b [angstrom     0.000    14.000     0.000   |b| =    14.000000
 CELL_REF| Vector c [angstrom     0.000     0.000    14.000   |c| =    14.000000
 CELL_REF| Angle (b,c), alpha [degree]:                                90.000000
 CELL_REF| Angle (a,c), beta  [degree]:                                90.000000
 CELL_REF| Angle (a,b), gamma [degree]:                                90.000000
 CELL_REF| Numerically orthorhombic:                                         YES
 CELL_REF| Periodicity                                                      NONE

 *******************************************************************************
 *******************************************************************************
 **                                                                           **
 **     #####                         ##              ##                      **
 **    ##   ##            ##          ##              ##                      **
 **   ##     ##                       ##            ######                    **
 **   ##     ##  ##   ##  ##   #####  ##  ##   ####   ##    #####    #####    **
 **   ##     ##  ##   ##  ##  ##      ## ##   ##      ##   ##   ##  ##   ##   **
 **   ##  ## ##  ##   ##  ##  ##      ####     ###    ##   ######   ######    **
 **    ##  ###   ##   ##  ##  ##      ## ##      ##   ##   ##       ##        **
 **     #######   #####   ##   #####  ##  ##  ####    ##    #####   ##        **
 **           ##                                                    ##        **
 **                                                                           **
 **                                                ... make the atoms dance   **
 **                                                                           **
 **            Copyright (C) by CP2K developers group (2000-2024)             **
 **                      J. Chem. Phys. 152, 194103 (2020)                    **
 **                                                                           **
 *******************************************************************************

 DFT| Spin restricted Kohn-Sham (RKS) calculation                            RKS
 DFT| Multiplicity                                                             1
 DFT| Number of spin states                                                    1
 DFT| Charge                                                                   0
 DFT| Self-interaction correction (SIC)                                       NO
 DFT| Cutoffs: density                                              1.000000E-10
 DFT|          gradient                                             1.000000E-10
 DFT|          tau                                                  1.000000E-10
 DFT|          cutoff_smoothing_range                               0.000000E+00
 DFT| XC density smoothing                                                  NONE
 DFT| XC derivatives                                                          PW

 FUNCTIONAL| BECKE88:
 FUNCTIONAL| A. Becke, Phys. Rev. A 38, 3098 (1988) {LDA version}               
 FUNCTIONAL| LYP:
 FUNCTIONAL| C. Lee, W. Yang, R.G. Parr, Phys. Rev. B, 37, 785 (1988) {LDA versi
 FUNCTIONAL| on}                                                                
 FUNCTIONAL| VWN:
 FUNCTIONAL| S. H. Vosko, L. Wilk and M. Nusair, Can. J. Phys. 58, 1200 (1980) {
 FUNCTIONAL| LDA version}                                                       
 FUNCTIONAL| XALPHA:
 FUNCTIONAL| Dirac/Slater local exchange; parameter=  0.666 {LDA}               

 vdW POTENTIAL|                                                   Pair Potential
 vdW POTENTIAL|          DFT-D3 (Version 3.1)
 vdW POTENTIAL|          Potential Form: S. Grimme et al, JCP 132: 154104 (2010)
 vdW POTENTIAL|          Zero Damping
 vdW POTENTIAL|          Cutoff Radius [Bohr]:                             37.79
 vdW POTENTIAL|          s6 Scaling Factor:                               1.0000
 vdW POTENTIAL|          sr6 Scaling Factor:                              1.2610
 vdW POTENTIAL|          s8 Scaling Factor:                               1.7030
 vdW POTENTIAL|          Cutoff for CN calculation:                   0.1000E-05

 QS| Method:                                                                GAPW
 QS| Density plane wave grid type                        NON-SPHERICAL FULLSPACE
 QS| Number of grid levels:                                                    4
 QS| Density cutoff [a.u.]:                                                200.0
 QS| Multi grid cutoff [a.u.]: 1) grid level                               200.0
 QS|                           2) grid level                                66.7
 QS|                           3) grid level                                22.2
 QS|                           4) grid level                                 7.4
 QS| Grid level progression factor:                                          3.0
 QS| Relative density cutoff [a.u.]:                                        30.0
 QS| Interaction thresholds: eps_pgf_orb:                                1.0E-07
 QS|                         eps_filter_matrix:                          0.0E+00
 QS|                         eps_core_charge:                            1.0E-16
 QS|                         eps_rho_gspace:                             1.0E-14
 QS|                         eps_rho_rspace:                             1.0E-14
 QS|                         eps_gvg_rspace:                             1.0E-07
 QS|                         eps_ppl:                                    1.0E-02
 QS|                         eps_ppnl:                                   1.0E-09
 QS| GAPW|      One center basis extended with primitives (small:s)
 QS| GAPW|                   eps_fit:                                    1.0E-04
 QS| GAPW|                   eps_iso:                                    1.0E-12
 QS| GAPW|                   eps_svd:                                    1.0E-08
 QS| GAPW|                   eps_cpc:                                    1.0E-14
 QS| GAPW|   atom-r-grid: quadrature:                                     GC_LOG
 QS| GAPW|      atom-s-grid:  max l :                                          6
 QS| GAPW|      max_l_rho0 :                                                   4


 ATOMIC KIND INFORMATION

  1. Atomic kind: n                                     Number of atoms:       2

     Orbital Basis Set                                        Ahlrichs-def2-TZVP

       Number of orbital shell sets:                                          11
       Number of orbital shells:                                              11
       Number of primitive Cartesian functions:                               20
       Number of Cartesian basis functions:                                   36
       Number of spherical basis functions:                                   31
       Norm type:                                                              2

       Normalised Cartesian orbitals:

                        Set   Shell   Orbital            Exponent    Coefficient

                          1       1    1s            19730.800647       0.695604
                                                      2957.895874       1.298610
                                                       673.221336       2.219088
                                                       190.682495       3.463661
                                                        62.295442       4.696756
                                                        22.654161       4.952251

                          2       1    1s                8.979148       2.388068
                                                         3.686300       0.733788

                          3       1    1s                0.846601       0.629027

                          4       1    1s                0.336471       0.314863

                          5       1    1s                0.136477       0.160031

                          6       1    1px              49.200381       2.126481
                                                        11.346791       2.327937
                                                         3.427397       2.048573
                                                         1.178553       1.260732
                          6       1    1py              49.200381       2.126481
                                                        11.346791       2.327937
                                                         3.427397       2.048573
                                                         1.178553       1.260732
                          6       1    1pz              49.200381       2.126481
                                                        11.346791       2.327937
                                                         3.427397       2.048573
                                                         1.178553       1.260732

                          7       1    1px               0.416422       0.476823
                          7       1    1py               0.416422       0.476823
                          7       1    1pz               0.416422       0.476823

                          8       1    1px               0.142608       0.124917
                          8       1    1py               0.142608       0.124917
                          8       1    1pz               0.142608       0.124917

                          9       1    1dx2              1.654000       3.970513
                          9       1    1dxy              1.654000       6.877130
                          9       1    1dxz              1.654000       6.877130
                          9       1    1dy2              1.654000       3.970513
                          9       1    1dyz              1.654000       6.877130
                          9       1    1dz2              1.654000       3.970513

                         10       1    1dx2              0.469000       0.437484
                         10       1    1dxy              0.469000       0.757744
                         10       1    1dxz              0.469000       0.757744
                         10       1    1dy2              0.469000       0.437484
                         10       1    1dyz              0.469000       0.757744
                         10       1    1dz2              0.469000       0.437484

                         11       1    1fx3              1.093000       1.798249
                         11       1    1fx2y             1.093000       4.021007
                         11       1    1fx2z             1.093000       4.021007
                         11       1    1fxy2             1.093000       4.021007
                         11       1    1fxyz             1.093000       6.964588
                         11       1    1fxz2             1.093000       4.021007
                         11       1    1fy3              1.093000       1.798249
                         11       1    1fy2z             1.093000       4.021007
                         11       1    1fyz2             1.093000       4.021007
                         11       1    1fz3              1.093000       1.798249

       Atomic covalent radius [Angstrom]:                                  0.750

       Atomic van der Waals radius [Angstrom]:                             1.550

     The atoms of this atomic kind are PAW atoms (GAPW):
       Hard Gaussian function radius:                                      1.400
       Rho0 radius:                                                        1.400
       Maximum GTO radius used for PAW projector construction:            24.566

     GAPW Soft Basis Set                                 Ahlrichs-def2-TZVP_soft

       Number of orbital shell sets:                                          11
       Number of orbital shells:                                              11
       Number of primitive Cartesian functions:                               11
       Number of Cartesian basis functions:                                   36
       Number of spherical basis functions:                                   31
       Norm type:                                                              2

       Normalised Cartesian orbitals:

                        Set   Shell   Orbital            Exponent    Coefficient

                          1       1    1s         

                          2       1    1s                3.686300       0.733788

                          3       1    1s                0.846601       0.629027

                          4       1    1s                0.336471       0.314863

                          5       1    1s                0.136477       0.160031

                          6       1    1px               3.427397       2.048573
                                                         1.178553       1.260732
                          6       1    1py               3.427397       2.048573
                                                         1.178553       1.260732
                          6       1    1pz               3.427397       2.048573
                                                         1.178553       1.260732

                          7       1    1px               0.416422       0.476823
                          7       1    1py               0.416422       0.476823
                          7       1    1pz               0.416422       0.476823

                          8       1    1px               0.142608       0.124917
                          8       1    1py               0.142608       0.124917
                          8       1    1pz               0.142608       0.124917

                          9       1    1dx2              1.654000       3.970513
                          9       1    1dxy              1.654000       6.877130
                          9       1    1dxz              1.654000       6.877130
                          9       1    1dy2              1.654000       3.970513
                          9       1    1dyz              1.654000       6.877130
                          9       1    1dz2              1.654000       3.970513

                         10       1    1dx2              0.469000       0.437484
                         10       1    1dxy              0.469000       0.757744
                         10       1    1dxz              0.469000       0.757744
                         10       1    1dy2              0.469000       0.437484
                         10       1    1dyz              0.469000       0.757744
                         10       1    1dz2              0.469000       0.437484

                         11       1    1fx3              1.093000       1.798249
                         11       1    1fx2y             1.093000       4.021007
                         11       1    1fx2z             1.093000       4.021007
                         11       1    1fxy2             1.093000       4.021007
                         11       1    1fxyz             1.093000       6.964588
                         11       1    1fxz2             1.093000       4.021007
                         11       1    1fy3              1.093000       1.798249
                         11       1    1fy2z             1.093000       4.021007
                         11       1    1fyz2             1.093000       4.021007
                         11       1    1fz3              1.093000       1.798249

     AE Potential information for                                            ALL

       Description:                                       All-electron potential
                                          Krack, Parrinello, PCCP 2, 2105 (2000)

       Gaussian exponent of the core charge distribution:               5.979100
       Electronic configuration (s p d ...):                           4   3   0

  2. Atomic kind: c                                     Number of atoms:       4

     Orbital Basis Set                                        Ahlrichs-def2-TZVP

       Number of orbital shell sets:                                          11
       Number of orbital shells:                                              11
       Number of primitive Cartesian functions:                               20
       Number of Cartesian basis functions:                                   36
       Number of spherical basis functions:                                   31
       Norm type:                                                              2

       Normalised Cartesian orbitals:

                        Set   Shell   Orbital            Exponent    Coefficient

                          1       1    1s            13575.349682       0.543591
                                                      2035.233368       1.014554
                                                       463.225624       1.731573
                                                       131.200196       2.691038
                                                        42.853016       3.604455
                                                        15.584186       3.702556

                          2       1    1s                6.206714       1.838354
                                                         2.576490       0.544758

                          3       1    1s                0.576963       0.471815

                          4       1    1s                0.229728       0.236494

                          5       1    1s                0.095164       0.122114

                          6       1    1px              34.697232       1.359665
                                                         7.958262       1.451259
                                                         2.378083       1.270923
                                                         0.814332       0.802572
                          6       1    1py              34.697232       1.359665
                                                         7.958262       1.451259
                                                         2.378083       1.270923
                                                         0.814332       0.802572
                          6       1    1pz              34.697232       1.359665
                                                         7.958262       1.451259
                                                         2.378083       1.270923
                                                         0.814332       0.802572

                          7       1    1px               0.288875       0.301876
                          7       1    1py               0.288875       0.301876
                          7       1    1pz               0.288875       0.301876

                          8       1    1px               0.100568       0.080727
                          8       1    1py               0.100568       0.080727
                          8       1    1pz               0.100568       0.080727

                          9       1    1dx2              1.097000       1.935401
                          9       1    1dxy              1.097000       3.352214
                          9       1    1dxz              1.097000       3.352214
                          9       1    1dy2              1.097000       1.935401
                          9       1    1dyz              1.097000       3.352214
                          9       1    1dz2              1.097000       1.935401

                         10       1    1dx2              0.318000       0.221644
                         10       1    1dxy              0.318000       0.383899
                         10       1    1dxz              0.318000       0.383899
                         10       1    1dy2              0.318000       0.221644
                         10       1    1dyz              0.318000       0.383899
                         10       1    1dz2              0.318000       0.221644

                         11       1    1fx3              0.761000       0.796288
                         11       1    1fx2y             0.761000       1.780553
                         11       1    1fx2z             0.761000       1.780553
                         11       1    1fxy2             0.761000       1.780553
                         11       1    1fxyz             0.761000       3.084008
                         11       1    1fxz2             0.761000       1.780553
                         11       1    1fy3              0.761000       0.796288
                         11       1    1fy2z             0.761000       1.780553
                         11       1    1fyz2             0.761000       1.780553
                         11       1    1fz3              0.761000       0.796288

       Atomic covalent radius [Angstrom]:                                  0.770

       Atomic van der Waals radius [Angstrom]:                             1.700

     The atoms of this atomic kind are PAW atoms (GAPW):
       Hard Gaussian function radius:                                      1.520
       Rho0 radius:                                                        1.520
       Maximum GTO radius used for PAW projector construction:            24.566

     GAPW Soft Basis Set                                 Ahlrichs-def2-TZVP_soft

       Number of orbital shell sets:                                          11
       Number of orbital shells:                                              11
       Number of primitive Cartesian functions:                               11
       Number of Cartesian basis functions:                                   36
       Number of spherical basis functions:                                   31
       Norm type:                                                              2

       Normalised Cartesian orbitals:

                        Set   Shell   Orbital            Exponent    Coefficient

                          1       1    1s         

                          2       1    1s                2.576490       0.544758

                          3       1    1s                0.576963       0.471815

                          4       1    1s                0.229728       0.236494

                          5       1    1s                0.095164       0.122114

                          6       1    1px               2.378083       1.270923
                                                         0.814332       0.802572
                          6       1    1py               2.378083       1.270923
                                                         0.814332       0.802572
                          6       1    1pz               2.378083       1.270923
                                                         0.814332       0.802572

                          7       1    1px               0.288875       0.301876
                          7       1    1py               0.288875       0.301876
                          7       1    1pz               0.288875       0.301876

                          8       1    1px               0.100568       0.080727
                          8       1    1py               0.100568       0.080727
                          8       1    1pz               0.100568       0.080727

                          9       1    1dx2              1.097000       1.935401
                          9       1    1dxy              1.097000       3.352214
                          9       1    1dxz              1.097000       3.352214
                          9       1    1dy2              1.097000       1.935401
                          9       1    1dyz              1.097000       3.352214
                          9       1    1dz2              1.097000       1.935401

                         10       1    1dx2              0.318000       0.221644
                         10       1    1dxy              0.318000       0.383899
                         10       1    1dxz              0.318000       0.383899
                         10       1    1dy2              0.318000       0.221644
                         10       1    1dyz              0.318000       0.383899
                         10       1    1dz2              0.318000       0.221644

                         11       1    1fx3              0.761000       0.796288
                         11       1    1fx2y             0.761000       1.780553
                         11       1    1fx2z             0.761000       1.780553
                         11       1    1fxy2             0.761000       1.780553
                         11       1    1fxyz             0.761000       3.084008
                         11       1    1fxz2             0.761000       1.780553
                         11       1    1fy3              0.761000       0.796288
                         11       1    1fy2z             0.761000       1.780553
                         11       1    1fyz2             0.761000       1.780553
                         11       1    1fz3              0.761000       0.796288

     AE Potential information for                                            ALL

       Description:                                       All-electron potential
                                          Krack, Parrinello, PCCP 2, 2105 (2000)

       Gaussian exponent of the core charge distribution:               4.109048
       Electronic configuration (s p d ...):                           4   2   0

  3. Atomic kind: h                                     Number of atoms:       4

     Orbital Basis Set                                        Ahlrichs-def2-TZVP

       Number of orbital shell sets:                                           4
       Number of orbital shells:                                               4
       Number of primitive Cartesian functions:                                6
       Number of Cartesian basis functions:                                    6
       Number of spherical basis functions:                                    6
       Norm type:                                                              2

       Normalised Cartesian orbitals:

                        Set   Shell   Orbital            Exponent    Coefficient

                          1       1    1s               34.061341       0.255630
                                                         5.123575       0.461360
                                                         1.164663       0.681121

                          2       1    1s                0.327230       0.308355

                          3       1    1s                0.103072       0.129648

                          4       1    1px               0.800000       1.078456
                          4       1    1py               0.800000       1.078456
                          4       1    1pz               0.800000       1.078456

       Atomic covalent radius [Angstrom]:                                  0.320

       Atomic van der Waals radius [Angstrom]:                             1.090

     The atoms of this atomic kind are PAW atoms (GAPW):
       Hard Gaussian function radius:                                      1.000
       Rho0 radius:                                                        1.000
       Maximum GTO radius used for PAW projector construction:            24.566

     GAPW Soft Basis Set                                 Ahlrichs-def2-TZVP_soft

       Number of orbital shell sets:                                           4
       Number of orbital shells:                                               4
       Number of primitive Cartesian functions:                                5
       Number of Cartesian basis functions:                                    6
       Number of spherical basis functions:                                    6
       Norm type:                                                              2

       Normalised Cartesian orbitals:

                        Set   Shell   Orbital            Exponent    Coefficient

                          1       1    1s                5.123575       0.461360
                                                         1.164663       0.681121

                          2       1    1s                0.327230       0.308355

                          3       1    1s                0.103072       0.129648

                          4       1    1px               0.800000       1.078456
                          4       1    1py               0.800000       1.078456
                          4       1    1pz               0.800000       1.078456

     AE Potential information for                                            ALL

       Description:                                       All-electron potential
                                          Krack, Parrinello, PCCP 2, 2105 (2000)

       Gaussian exponent of the core charge distribution:              12.500000
       Electronic configuration (s p d ...):                           1   0   0


 MOLECULE KIND INFORMATION


 All atoms are their own molecule, skipping detailed information


 TOTAL NUMBERS AND MAXIMUM NUMBERS

  Total number of            - Atomic kinds:                                   3
                             - Atoms:                                         10
                             - Shell sets:                                    82
                             - Shells:                                        82
                             - Primitive Cartesian functions:                144
                             - Cartesian basis functions:                    240
                             - Spherical basis functions:                    210

  Maximum angular momentum of the orbital basis functions:                     3


 MODULE QUICKSTEP: ATOMIC COORDINATES IN ANGSTROM

   Atom Kind Element         X             Y             Z       Z(eff)     Mass
      1    1 n     7      7.246041      8.037317      7.590380   7.0000  14.0067
      2    1 n     7      6.933229      5.762052      6.403723   7.0000  14.0067
      3    2 c     6      7.377412      6.885380      8.346336   6.0000  12.0107
      4    2 c     6      7.050375      5.676332      7.716538   6.0000  12.0107
      5    2 c     6      7.103947      8.047152      6.250128   6.0000  12.0107
      6    2 c     6      7.013058      6.817887      5.471183   6.0000  12.0107
      7    3 h     1      7.232356      7.000492      9.591617   1.0000   1.0079
      8    3 h     1      6.622588      4.884633      8.209916   1.0000   1.0079
      9    3 h     1      7.030238      9.115367      5.847517   1.0000   1.0079
     10    3 h     1      7.373231      6.790381      4.408383   1.0000   1.0079



 SCF PARAMETERS         Density guess:                                   RESTART
                        --------------------------------------------------------
                        max_scf:                                              50
                        max_scf_history:                                       0
                        max_diis:                                              4
                        --------------------------------------------------------
                        eps_scf:                                        1.00E-08
                        eps_scf_history:                                0.00E+00
                        eps_diis:                                       1.00E-01
                        eps_eigval:                                     1.00E-05
                        --------------------------------------------------------
                        level_shift [a.u.]:                             0.000000
                        --------------------------------------------------------
                        Outer loop SCF in use 
                        No variables optimised in outer loop
                        eps_scf                                         1.00E-08
                        max_scf                                              900
                        No outer loop optimization
                        step_size                                       5.00E-01

 PW_GRID| Information for grid number                                          1
 PW_GRID| Grid distributed over                                    16 processors
 PW_GRID| Real space group dimensions                                    16    1
 PW_GRID| the grid is blocked:                                                NO
 PW_GRID| Cutoff [a.u.]                                                    400.0
 PW_GRID| spherical cutoff:                                                   NO
 PW_GRID|   Bounds   1           -120     119                Points:         240
 PW_GRID|   Bounds   2           -120     119                Points:         240
 PW_GRID|   Bounds   3           -120     119                Points:         240
 PW_GRID| Volume element (a.u.^3)  0.1340E-02     Volume (a.u.^3)     18517.4301
 PW_GRID| Grid span                                                    FULLSPACE
 PW_GRID|   Distribution                         Average         Max         Min
 PW_GRID|   G-Vectors                           864000.0      864000      864000
 PW_GRID|   G-Rays                                3600.0        3600        3600
 PW_GRID|   Real Space Points                   864000.0      864000      864000

 PW_GRID| Information for grid number                                          2
 PW_GRID| Number of the reference grid                                         1
 PW_GRID| Grid distributed over                                    16 processors
 PW_GRID| Real space group dimensions                                    16    1
 PW_GRID| the grid is blocked:                                                NO
 PW_GRID| Cutoff [a.u.]                                                    200.0
 PW_GRID| spherical cutoff:                                                   NO
 PW_GRID|   Bounds   1            -90      89                Points:         180
 PW_GRID|   Bounds   2            -90      89                Points:         180
 PW_GRID|   Bounds   3            -90      89                Points:         180
 PW_GRID| Volume element (a.u.^3)  0.3175E-02     Volume (a.u.^3)     18517.4301
 PW_GRID| Grid span                                                    FULLSPACE
 PW_GRID|   Distribution                         Average         Max         Min
 PW_GRID|   G-Vectors                           364500.0      364680      364320
 PW_GRID|   G-Rays                                2025.0        2026        2024
 PW_GRID|   Real Space Points                   364500.0      388800      356400

 PW_GRID| Information for grid number                                          3
 PW_GRID| Number of the reference grid                                         2
 PW_GRID| Grid distributed over                                    16 processors
 PW_GRID| Real space group dimensions                                    16    1
 PW_GRID| the grid is blocked:                                                NO
 PW_GRID| Cutoff [a.u.]                                                     66.7
 PW_GRID| spherical cutoff:                                                   NO
 PW_GRID|   Bounds   1            -50      49                Points:         100
 PW_GRID|   Bounds   2            -50      49                Points:         100
 PW_GRID|   Bounds   3            -50      49                Points:         100
 PW_GRID| Volume element (a.u.^3)  0.1852E-01     Volume (a.u.^3)     18517.4301
 PW_GRID| Grid span                                                    FULLSPACE
 PW_GRID|   Distribution                         Average         Max         Min
 PW_GRID|   G-Vectors                            62500.0       62600       62400
 PW_GRID|   G-Rays                                 625.0         626         624
 PW_GRID|   Real Space Points                    62500.0       70000       60000

 PW_GRID| Information for grid number                                          4
 PW_GRID| Number of the reference grid                                         2
 PW_GRID| Grid distributed over                                    16 processors
 PW_GRID| Real space group dimensions                                    16    1
 PW_GRID| the grid is blocked:                                                NO
 PW_GRID| Cutoff [a.u.]                                                     22.2
 PW_GRID| spherical cutoff:                                                   NO
 PW_GRID|   Bounds   1            -30      29                Points:          60
 PW_GRID|   Bounds   2            -30      29                Points:          60
 PW_GRID|   Bounds   3            -30      29                Points:          60
 PW_GRID| Volume element (a.u.^3)  0.8573E-01     Volume (a.u.^3)     18517.4301
 PW_GRID| Grid span                                                    FULLSPACE
 PW_GRID|   Distribution                         Average         Max         Min
 PW_GRID|   G-Vectors                            13500.0       13560       13440
 PW_GRID|   G-Rays                                 225.0         226         224
 PW_GRID|   Real Space Points                    13500.0       14400       10800

 PW_GRID| Information for grid number                                          5
 PW_GRID| Number of the reference grid                                         2
 PW_GRID| Grid distributed over                                    16 processors
 PW_GRID| Real space group dimensions                                    16    1
 PW_GRID| the grid is blocked:                                                NO
 PW_GRID| Cutoff [a.u.]                                                      7.4
 PW_GRID| spherical cutoff:                                                   NO
 PW_GRID|   Bounds   1            -18      17                Points:          36
 PW_GRID|   Bounds   2            -18      17                Points:          36
 PW_GRID|   Bounds   3            -18      17                Points:          36
 PW_GRID| Volume element (a.u.^3)  0.3969         Volume (a.u.^3)     18517.4301
 PW_GRID| Grid span                                                    FULLSPACE
 PW_GRID|   Distribution                         Average         Max         Min
 PW_GRID|   G-Vectors                             2916.0        2952        2880
 PW_GRID|   G-Rays                                  81.0          82          80
 PW_GRID|   Real Space Points                     2916.0        3888        2592

 POISSON| Solver                                          Martyna-Tuckerman (MT)
 POISSON| MT| Alpha                                                        7.000
 POISSON| MT| Relative cutoff                                                2.0
 POISSON| Periodicity                                                       NONE

 RS_GRID| Information for grid number                                          2
 RS_GRID|   Bounds   1            -90      89                Points:         180
 RS_GRID|   Bounds   2            -90      89                Points:         180
 RS_GRID|   Bounds   3            -90      89                Points:         180
 RS_GRID| Real space distribution over                                  4 groups
 RS_GRID| Real space distribution along direction                              2
 RS_GRID| Border size                                                         31
 RS_GRID| Real space distribution over                                  4 groups
 RS_GRID| Real space distribution along direction                              3
 RS_GRID| Border size                                                         31
 RS_GRID|   Distribution                         Average         Max         Min
 RS_GRID|   Planes                                 107.0         107         107
 RS_GRID|   Distribution                         Average         Max         Min
 RS_GRID|   Planes                                 107.0         107         107

 RS_GRID| Information for grid number                                          3
 RS_GRID|   Bounds   1            -50      49                Points:         100
 RS_GRID|   Bounds   2            -50      49                Points:         100
 RS_GRID|   Bounds   3            -50      49                Points:         100
 RS_GRID| Real space fully replicated
 RS_GRID| Group size                                                           1

 RS_GRID| Information for grid number                                          4
 RS_GRID|   Bounds   1            -30      29                Points:          60
 RS_GRID|   Bounds   2            -30      29                Points:          60
 RS_GRID|   Bounds   3            -30      29                Points:          60
 RS_GRID| Real space fully replicated
 RS_GRID| Group size                                                           1

 RS_GRID| Information for grid number                                          5
 RS_GRID|   Bounds   1            -18      17                Points:          36
 RS_GRID|   Bounds   2            -18      17                Points:          36
 RS_GRID|   Bounds   3            -18      17                Points:          36
 RS_GRID| Real space fully replicated
 RS_GRID| Group size                                                           1

  HFX_INFO| Replica ID:                                                        1
  HFX_INFO| FRACTION:                                               0.2000000000
  HFX_INFO| Interaction Potential:                                       COULOMB
  HFX_INFO| EPS_SCHWARZ:                                                 1.0E-10
  HFX_INFO| EPS_SCHWARZ_FORCES                                           1.0E-08
  HFX_INFO| EPS_STORAGE_SCALING:                                         1.0E+00
  HFX_INFO| NBINS:                                                            64
  HFX_INFO| BLOCK_SIZE:                                                        1
  HFX_INFO| Number of periodic shells considered:                           NONE
  HFX_INFO| Number of periodic cells considered:                            NONE


 Number of electrons:                                                         42
 Number of occupied orbitals:                                                 21
 Number of molecular orbitals:                                                21

 Number of orbital functions:                                                210
 Number of independent orbital functions:                                    210

 Extrapolation method: initial_guess


 SCF WAVEFUNCTION OPTIMIZATION

  ----------------------------------- OT ---------------------------------------
  Minimizer      : DIIS                : direct inversion
                                         in the iterative subspace
                                         using   7 DIIS vectors
                                         safer DIIS on
  Preconditioner : FULL_ALL            : diagonalization, state selective
  Precond_solver : DEFAULT
  stepsize       :    0.15000000                  energy_gap     :    0.08000000
  eps_taylor     :   0.10000E-15                  max_taylor     :             4
  ----------------------------------- OT ---------------------------------------

  Step     Update method      Time    Convergence         Total energy    Change
  ------------------------------------------------------------------------------

  HFX_MEM_INFO| Est. max. program size before HFX [MiB]:                     642
  HFX_MEM_INFO| Number of cart. primitive ERI's calculated:           1703636533
  HFX_MEM_INFO| Number of sph. ERI's calculated:                       315095947
  HFX_MEM_INFO| Number of sph. ERI's stored in-core:                   315095947
  HFX_MEM_INFO| Number of sph. ERI's stored on disk:                           0
  HFX_MEM_INFO| Number of sph. ERI's calculated on the fly:                    0
  HFX_MEM_INFO| Total memory consumption ERI's RAM [MiB]:                    930
  HFX_MEM_INFO| Whereof max-vals [MiB]:                                        5
  HFX_MEM_INFO| Total compression factor ERI's RAM:                         2.59
  HFX_MEM_INFO| Total memory consumption ERI's disk [MiB]:                     0
  HFX_MEM_INFO| Total compression factor ERI's disk:                        0.00
  HFX_MEM_INFO| Size of density/Fock matrix [MiB]:                             0
  HFX_MEM_INFO| Size of buffers [MiB]:                                         0
  HFX_MEM_INFO| Est. max. program size after HFX  [MiB]:                     700

     1 OT DIIS     0.15E+00    3.9     0.01318339      -264.0802454396 -2.64E+02
     2 OT DIIS     0.15E+00    0.7     0.00602188      -264.1612276410 -8.10E-02
     3 OT DIIS     0.15E+00    0.7     0.00244876      -264.1806326596 -1.94E-02
     4 OT DIIS     0.15E+00    0.7     0.00055728      -264.1822353986 -1.60E-03
     5 OT DIIS     0.15E+00    0.7     0.00022805      -264.1823020574 -6.67E-05
     6 OT DIIS     0.15E+00    0.7     0.00008743      -264.1823177027 -1.56E-05
     7 OT DIIS     0.15E+00    0.7     0.00002910      -264.1823203223 -2.62E-06
     8 OT DIIS     0.15E+00    0.7     0.00000991      -264.1823206610 -3.39E-07
     9 OT DIIS     0.15E+00    0.7     0.00000346      -264.1823206942 -3.31E-08
    10 OT DIIS     0.15E+00    0.7     0.00000114      -264.1823206999 -5.77E-09
    11 OT DIIS     0.15E+00    0.7     0.00000061      -264.1823207004 -5.01E-10
    12 OT DIIS     0.15E+00    0.7     0.00000027      -264.1823207005 -9.56E-11
    13 OT DIIS     0.15E+00    0.7     0.00000011      -264.1823207005 -2.95E-11
    14 OT DIIS     0.15E+00    0.7     0.00000003      -264.1823207005  8.53E-13
    15 OT DIIS     0.15E+00    0.7     0.00000002      -264.1823207005  8.70E-12
    16 OT DIIS     0.15E+00    0.7     7.6035E-09      -264.1823207005  5.85E-12

  *** SCF run converged in    16 steps ***


  Electronic density on regular grids:        -30.6521194596       11.3478805404
  Core density on regular grids:               42.0000000000       -0.0000000000
  Hard and soft densities (Lebedev):          -93.5381678970      -82.1902873714
  Total Rho_soft + Rho1_hard - Rho1_soft      -41.9999999852
  Total charge density (r-space):               0.0000000148
  Total Rho_soft + Rho0_soft (g-space):        -0.0000000109

  Overlap energy of the core charge distribution:               0.00000745033548
  Self energy of the core charge distribution:               -217.69203579805162
  Core Hamiltonian energy:                                    -42.32607378657857
  Hartree energy:                                             110.16148477734045
  Exchange-correlation energy:                                -11.10357370193733
  Hartree-Fock Exchange energy:                                -7.02417312715917
  Dispersion energy:                                           -0.00386082090640

  GAPW| Exc from hard and soft atomic rho1:                   -18.54348224166640
  GAPW| local Eh = 1 center integrals:                        -77.65061345190665

  Total energy:                                              -264.18232070053023

  outer SCF iter =    1 RMS gradient =   0.76E-08 energy =       -264.1823207005
  outer SCF loop converged in   1 iterations or   16 steps


 !-----------------------------------------------------------------------------!
                     Mulliken Population Analysis

 #  Atom  Element  Kind  Atomic population                           Net charge
       1     n        1          7.227082                             -0.227082
       2     n        1          7.215349                             -0.215349
       3     c        2          6.017620                             -0.017620
       4     c        2          6.016762                             -0.016762
       5     c        2          6.025748                             -0.025748
       6     c        2          6.022842                             -0.022842
       7     h        3          0.879065                              0.120935
       8     h        3          0.870321                              0.129679
       9     h        3          0.876924                              0.123076
      10     h        3          0.848287                              0.151713
 # Total charge                             42.000000                  0.000000

 !-----------------------------------------------------------------------------!

 !-----------------------------------------------------------------------------!
                           Hirshfeld Charges

  #Atom  Element  Kind  Ref Charge     Population                    Net charge
      1       n      1       7.000          7.308                        -0.308
      2       n      1       7.000          7.313                        -0.313
      3       c      2       6.000          6.342                        -0.342
      4       c      2       6.000          6.323                        -0.323
      5       c      2       6.000          6.351                        -0.351
      6       c      2       6.000          6.323                        -0.323
      7       h      3       1.000          0.513                         0.487
      8       h      3       1.000          0.508                         0.492
      9       h      3       1.000          0.513                         0.487
     10       h      3       1.000          0.493                         0.507

  Total Charge                                                            0.012
 !-----------------------------------------------------------------------------!

 *******************************************************************************
 **                                                                           **
 **         ######## #######   #######   ######## #######  ########           **
 **            ##    ##     ## ##     ## ##       ##   ##     ##              **
 **            ##    ##     ## ##     ## ######   #######     ##              **
 **            ##    ##     ## ##     ## ##       ##          ##              **
 **            ##    #######   #######   ##       ##          ##              **
 **                                                                           **
 *******************************************************************************
 KERNEL|                                                                    FULL
 FUNCTIONAL| BECKE88:
 FUNCTIONAL| A. Becke, Phys. Rev. A 38, 3098 (1988) {LDA version}               
 FUNCTIONAL| LYP:
 FUNCTIONAL| C. Lee, W. Yang, R.G. Parr, Phys. Rev. B, 37, 785 (1988) {LDA versi
 FUNCTIONAL| on}                                                                
 FUNCTIONAL| VWN:
 FUNCTIONAL| S. H. Vosko, L. Wilk and M. Nusair, Can. J. Phys. 58, 1200 (1980) {
 FUNCTIONAL| LDA version}                                                       
 FUNCTIONAL| XALPHA:
 FUNCTIONAL| Dirac/Slater local exchange; parameter=  0.666 {LDA}               
 KERNEL|                                                          Exact Exchange
 KERNEL| Spin symmetry of excitations                                    Singlet
 TDDFPT| Number of states calculated                                           9
 TDDFPT| Number of Davidson iterations                                       100
 TDDFPT| Davidson iteration convergence                                0.367E-09
 TDDFPT| Max. number of Krylov space vectors                                5000
 TDDFPT| Molecular Orbitals:        Spin       AOs       Occ      Virt     Total
 TDDFPT|                               1       210        21       189       210
 
 -------------------------------------------------------------------------------
 -                            TDDFPT Initial Guess                             -
 -------------------------------------------------------------------------------
          State         Occupied      ->      Virtual          Excitation
          number         orbital              orbital          energy (eV)
 -------------------------------------------------------------------------------
             1               21                   22              4.19776
             2               21                   23              5.07164
             3               20                   22              5.59802
             4               19                   22              5.87982
             5               20                   23              6.47190
             6               18                   22              6.64805
             7               19                   23              6.75370
             8               21                   24              7.49742
             9               18                   23              7.52193

      Number of active states:                                       3969
 -------------------------------------------------------------------------------
 
 -------------------------------------------------------------------------------
 -                      TDDFPT WAVEFUNCTION OPTIMIZATION                       -
 -------------------------------------------------------------------------------

          Step            Time         Convergence           Conv. states
 -------------------------------------------------------------------------------

    State    Exc. energy (eV)      Convergence (eV)
        1       3.0361596            -1.1616E+00
        2       3.9216280            -1.1500E+00
        3       4.3504044            -1.2476E+00
        4       5.2130340            -6.6679E-01
        5       5.4913368            -9.8056E-01
        6       6.7118111             6.3764E-02
        7       7.2798047             5.2610E-01
        8       9.2935295             1.7961E+00
        9       9.8802786             2.3584E+00

             1             7.2          8.6668E-02                      0

    State    Exc. energy (eV)      Convergence (eV)
        1       2.9443095            -9.1850E-02
        2       3.8290691            -9.2559E-02
        3       4.2868692            -6.3535E-02
        4       5.1521460            -6.0888E-02
        5       5.3823865            -1.0895E-01
        6       6.2485153            -4.6330E-01
        7       6.5713111            -7.0849E-01
        8       7.9561481            -1.3374E+00
        9       8.4391616            -1.4411E+00

             2             7.1          5.2960E-02                      0

    State    Exc. energy (eV)      Convergence (eV)
        1       2.9381463            -6.1632E-03
        2       3.8232177            -5.8514E-03
        3       4.2832623            -3.6069E-03
        4       5.1478728            -4.2732E-03
        5       5.3770778            -5.3087E-03
        6       6.2189473            -2.9568E-02
        7       6.5391352            -3.2176E-02
        8       6.9757610            -9.8039E-01
        9       7.2364445            -1.2027E+00

             3             7.2          4.4199E-02                      0

    State    Exc. energy (eV)      Convergence (eV)
        1       2.9380016            -1.4475E-04
        2       3.8229939            -2.2375E-04
        3       4.2831750            -8.7326E-05
        4       5.1477137            -1.5914E-04
        5       5.3767605            -3.1721E-04
        6       6.2164878            -2.4595E-03
        7       6.5256863            -1.3449E-02
        8       6.7814967            -1.9426E-01
        9       7.1006613            -1.3578E-01

             4             7.1          7.1391E-03                      0

    State    Exc. energy (eV)      Convergence (eV)
        1       2.9379998            -1.7441E-06
        2       3.8229903            -3.6920E-06
        3       4.2831728            -2.1724E-06
        4       5.1477087            -4.9477E-06
        5       5.3767507            -9.8426E-06
        6       6.2164168            -7.1026E-05
        7       6.5240555            -1.6308E-03
        8       6.7650450            -1.6452E-02
        9       7.0868295            -1.3832E-02

             5             7.1          6.0459E-04                      0

    State    Exc. energy (eV)      Convergence (eV)
        1       2.9379998            -2.4208E-08
        2       3.8229902            -3.6221E-08
        3       4.2831728            -3.8390E-08
        4       5.1477086            -1.0610E-07
        5       5.3767504            -2.5246E-07
        6       6.2164148            -1.9270E-06
        7       6.5239549            -1.0054E-04
        8       6.7632904            -1.7546E-03
        9       7.0846585            -2.1710E-03

             6             7.1          7.9783E-05                      0

    State    Exc. energy (eV)      Convergence (eV)
        1       2.9379998            -1.7754E-10
        2       3.8229902            -3.1918E-10
        3       4.2831728            -4.2022E-10
        4       5.1477086            -1.5972E-09
        5       5.3767504            -4.2452E-09
        6       6.2164148            -5.4492E-08
        7       6.5239513            -3.6358E-06
        8       6.7632085            -8.1940E-05
        9       7.0844759            -1.8263E-04

             7             7.1          6.7117E-06                      5

    State    Exc. energy (eV)      Convergence (eV)
        1       2.9379998            -1.1061E-12
        2       3.8229902            -3.0520E-12
        3       4.2831728            -4.2725E-12
        4       5.1477086            -1.7332E-11
        5       5.3767504            -6.5587E-11
        6       6.2164148            -1.6607E-09
        7       6.5239512            -8.8616E-08
        8       6.7632055            -2.9617E-06
        9       7.0844667            -9.1891E-06

             8             7.1          3.3769E-07                      6

    State    Exc. energy (eV)      Convergence (eV)
        1       2.9379998            -1.5105E-14
        2       3.8229902            -2.4924E-14
        3       4.2831728            -1.5105E-14
        4       5.1477086            -1.1027E-13
        5       5.3767504            -5.0452E-13
        6       6.2164148            -2.6115E-11
        7       6.5239512            -1.0509E-09
        8       6.7632055            -3.6007E-08
        9       7.0844663            -4.2735E-07

             9             7.1          1.5705E-08                      7

    State    Exc. energy (eV)      Convergence (eV)
        1       2.9379998             4.5316E-15
        2       3.8229902            -3.0211E-15
        3       4.2831728            -9.8185E-15
        4       5.1477086            -3.0211E-15
        5       5.3767504            -8.3079E-15
        6       6.2164148            -3.1872E-13
        7       6.5239512            -1.7752E-11
        8       6.7632055            -7.0299E-10
        9       7.0844663            -1.1182E-08

            10             7.1          4.1093E-10                      8

    State    Exc. energy (eV)      Convergence (eV)
        1       2.9379998             3.7763E-16
        2       3.8229902             1.0574E-14
        3       4.2831728             7.5527E-16
        4       5.1477086            -7.5527E-16
        5       5.3767504            -4.5316E-15
        6       6.2164148            -7.5527E-15
        7       6.5239512            -2.5226E-13
        8       6.7632055            -1.1068E-11
        9       7.0844663            -2.3342E-10

            11             7.1          8.5779E-12                      9
 ------------------------- Restart Davidson iterations -------------------------

    State    Exc. energy (eV)      Convergence (eV)
        1       2.9379998            -3.7763E-16
        2       3.8229902            -3.0211E-15
        3       4.2831728            -6.7974E-15
        4       5.1477086            -4.5316E-15
        5       5.3767504             2.2658E-15
        6       6.2164148             3.0211E-15
        7       6.5239512             7.5527E-15
        8       6.7632055             1.5861E-14
        9       7.0844663            -1.2084E-14

            12             7.1          5.8287E-16                      9
 
 -------------------------------------------------------------------------------
 -  TDDFPT run converged in 12 iteration(s) 
 -------------------------------------------------------------------------------

 R-TDDFPT states of multiplicity 1
 Transition dipoles calculated using length formulation

         State    Excitation        Transition dipole (a.u.)        Oscillator
         number   energy (eV)       x           y           z     strength (a.u.)
         ------------------------------------------------------------------------
 TDDFPT|      1       2.93800   2.3118E-01  5.5418E-02  1.4639E-01   5.61048E-03
 TDDFPT|      2       3.82299  -6.5910E-02  2.6469E-01 -2.7580E-02   7.04031E-03
 TDDFPT|      3       4.28317   3.7510E-02 -5.9489E-02 -1.0992E-01   1.78681E-03
 TDDFPT|      4       5.14771  -5.4365E-02 -1.3643E-01  1.1213E-01   4.30556E-03
 TDDFPT|      5       5.37675   7.1862E-02 -2.6897E-03  6.3830E-01   5.43510E-02
 TDDFPT|      6       6.21641  -2.1143E-01 -2.0487E-01 -7.5839E-01   1.00796E-01
 TDDFPT|      7       6.52395   4.5506E-02  2.9488E-01  7.6242E-03   1.42382E-02
 TDDFPT|      8       6.76321   5.0016E-02  1.7408E-01  4.6304E-01   4.09614E-02
 TDDFPT|      9       7.08447  -4.9138E-03  6.9958E-01 -3.4472E-01   1.05576E-01

 TDDFPT : CheckSum  =  0.608462E+00
 
 -------------------------------------------------------------------------------
 -                            Excitation analysis                              -
 -------------------------------------------------------------------------------
        State             Occupied              Virtual             Excitation
        number             orbital              orbital             amplitude
 -------------------------------------------------------------------------------
             1   2.93800 eV
                                21                   22               0.980385
                                19                   22              -0.150635
                                21                   23               0.068283
             2   3.82299 eV
                                21                   23              -0.969349
                                19                   23               0.153523
                                20                   22               0.100211
                                18                   22              -0.087946
                                20                   23              -0.087066
                                21                   22               0.058273
             3   4.28317 eV
                                20                   22               0.921032
                                19                   22               0.363529
                                21                   23               0.089719
                                20                   23               0.051419
             4   5.14771 eV
                                20                   23              -0.890165
                                18                   22               0.308475
                                19                   22               0.231380
                                19                   23              -0.215572
             5   5.37675 eV
                                19                   22               0.550421
                                19                   23               0.516213
                                18                   23              -0.411729
                                18                   22               0.385286
                                20                   22              -0.241610
                                20                   23               0.176591
                                21                   22               0.088906
             6   6.21641 eV
                                19                   22              -0.579702
                                18                   22               0.514402
                                19                   23               0.481641
                                20                   22               0.192860
                                21                   25              -0.183443
                                20                   23              -0.120580
                                21                   22              -0.089144
                                21                   26               0.087728
                                18                   23               0.087201
                                17                   22              -0.067262
                                21                   23               0.066164
             7   6.52395 eV
                                21                   24               0.847320
                                19                   23              -0.307220
                                21                   25              -0.281761
                                21                   26               0.214051
                                18                   22               0.157757
                                20                   23               0.079743
             8   6.76321 eV
                                21                   25              -0.769418
                                21                   24              -0.434275
                                21                   26               0.262597
                                18                   23              -0.253548
                                19                   23              -0.219987
                                17                   22               0.114026
                                18                   22               0.051661
                                19                   24              -0.051223
             9   7.08447 eV
                                21                   26               0.673764
                                21                   25               0.439729
                                18                   22               0.293361
                                19                   23              -0.270536
                                21                   24              -0.215623
                                21                   27              -0.193018
                                17                   22              -0.191373
                                20                   23               0.155551
                                21                   23              -0.073476
                                20                   24              -0.063375
                                21                   28              -0.056972
                                15                   22              -0.052138
 -------------------------------------------------------------------------------
 
 -------------------------------------------------------------------------------
 -                            Natural Orbital analysis                         -
 -------------------------------------------------------------------------------
   STATE NR.      1             2.93800 eV
     Particle-Hole state: 1   Spin:1     Eigenvalue: 0.99344   Sum Eigv: 0.99344
   STATE NR.      2             3.82299 eV
     Particle-Hole state: 1   Spin:1     Eigenvalue: 0.97889   Sum Eigv: 0.97889
   STATE NR.      3             4.28317 eV
     Particle-Hole state: 1   Spin:1     Eigenvalue: 0.98697   Sum Eigv: 0.98697
   STATE NR.      4             5.14771 eV
     Particle-Hole state: 1   Spin:1     Eigenvalue: 0.84202   Sum Eigv: 0.84202
     Particle-Hole state: 2   Spin:1     Eigenvalue: 0.15128   Sum Eigv: 0.99330
   STATE NR.      5             5.37675 eV
     Particle-Hole state: 1   Spin:1     Eigenvalue: 0.58076   Sum Eigv: 0.58076
     Particle-Hole state: 2   Spin:1     Eigenvalue: 0.40673   Sum Eigv: 0.98749
   STATE NR.      6             6.21641 eV
     Particle-Hole state: 1   Spin:1     Eigenvalue: 0.78976   Sum Eigv: 0.78976
     Particle-Hole state: 2   Spin:1     Eigenvalue: 0.12654   Sum Eigv: 0.91630
     Particle-Hole state: 3   Spin:1     Eigenvalue: 0.05757   Sum Eigv: 0.97386
     Particle-Hole state: 4   Spin:1     Eigenvalue: 0.00664   Sum Eigv: 0.98050
   STATE NR.      7             6.52395 eV
     Particle-Hole state: 1   Spin:1     Eigenvalue: 0.85344   Sum Eigv: 0.85344
     Particle-Hole state: 2   Spin:1     Eigenvalue: 0.11322   Sum Eigv: 0.96666
     Particle-Hole state: 3   Spin:1     Eigenvalue: 0.02809   Sum Eigv: 0.99475
   STATE NR.      8             6.76321 eV
     Particle-Hole state: 1   Spin:1     Eigenvalue: 0.85658   Sum Eigv: 0.85658
     Particle-Hole state: 2   Spin:1     Eigenvalue: 0.12286   Sum Eigv: 0.97944
   STATE NR.      9             7.08447 eV
     Particle-Hole state: 1   Spin:1     Eigenvalue: 0.74953   Sum Eigv: 0.74953
     Particle-Hole state: 2   Spin:1     Eigenvalue: 0.14326   Sum Eigv: 0.89278
[...]
  total size                         1.151941E+09
  min size                           0.000000E+00
  max size                          31.744000E+03
  average size                       7.807020E+03
 MPI breakdown and total messages size (bytes):
             size <=      128               81366                        0
       128 < size <=     8192               11934                 82241712
      8192 < size <=    32768               54252               1069699680
     32768 < size <=   131072                   0                        0
    131072 < size <=  4194304                   0                        0
   4194304 < size <= 16777216                   0                        0
  16777216 < size                               0                        0
 -------------------------------------------------------------------------------
 -                                                                             -
 -                      DBCSR MESSAGE PASSING PERFORMANCE                      -
 -                                                                             -
 -------------------------------------------------------------------------------
 ROUTINE             CALLS      AVE VOLUME [Bytes]
 MP_Bcast               28                     12.
 MP_Allreduce         6533                      8.
 MP_Alltoall         26424                   2780.
 MP_ISend            24588                   3654.
 MP_IRecv            24588                   3373.
 -------------------------------------------------------------------------------

 -------------------------------------------------------------------------------
 -                                                                             -
 -                                DBM STATISTICS                               -
 -                                                                             -
 -------------------------------------------------------------------------------
    M  x    N  x    K                                          COUNT     PERCENT
 -------------------------------------------------------------------------------

 -------------------------------------------------------------------------------
 -                                                                             -
 -                                GRID STATISTICS                              -
 -                                                                             -
 -------------------------------------------------------------------------------
 LP    KERNEL             BACKEND                              COUNT     PERCENT
 1     collocate ortho    CPU                                 253673      15.65%
 2     collocate ortho    CPU                                 206367      12.73%
 1     integrate ortho    CPU                                 204057      12.59%
 0     collocate ortho    CPU                                 176204      10.87%
 2     integrate ortho    CPU                                 170071      10.49%
 3     collocate ortho    CPU                                 139097       8.58%
 0     integrate ortho    CPU                                 137228       8.47%
 3     integrate ortho    CPU                                 115937       7.15%
 4     collocate ortho    CPU                                  59892       3.69%
 4     integrate ortho    CPU                                  51772       3.19%
 4     collocate general  CPU                                  21024       1.30%
 5     collocate ortho    CPU                                  18228       1.12%
 5     integrate ortho    CPU                                  16404       1.01%
 4     integrate general  CPU                                  16224       1.00%
 2     collocate general  CPU                                  14016       0.86%
 2     integrate general  CPU                                  10816       0.67%
 6     collocate ortho    CPU                                   4557       0.28%
 6     integrate ortho    CPU                                   4221       0.26%
 5     integrate general  CPU                                    384       0.02%
 3     integrate general  CPU                                    256       0.02%
 7     integrate ortho    CPU                                    168       0.01%
 0     collocate general  CPU                                    160       0.01%
 0     integrate general  CPU                                    160       0.01%
 -------------------------------------------------------------------------------

 MEMORY| Estimated peak process memory [MiB]                                1277

 -------------------------------------------------------------------------------
 ----                             MULTIGRID INFO                            ----
 -------------------------------------------------------------------------------
 count for grid        1:         109538          cutoff [a.u.]          200.00
 count for grid        2:          22507          cutoff [a.u.]           66.67
 count for grid        3:           8627          cutoff [a.u.]           22.22
 count for grid        4:           1858          cutoff [a.u.]            7.41
 total gridlevel count  :         142530

 -------------------------------------------------------------------------------
 -                                                                             -
 -                         MESSAGE PASSING PERFORMANCE                         -
 -                                                                             -
 -------------------------------------------------------------------------------

 ROUTINE             CALLS      AVE VOLUME [Bytes]
 MP_Group                5
 MP_Bcast             4938                 952146.
 MP_Allreduce        15520                 141240.
 MP_Sync              1478
 MP_Alltoall          4320               15012040.
 MP_SendRecv          9825                 233998.
 MP_ISendRecv        16560                 125052.
 MP_Wait             34856
 MP_comm_split          50
 MP_ISend            15767                 822520.
 MP_IRecv            15934                 813549.
 -------------------------------------------------------------------------------


 -------------------------------------------------------------------------------
 -                                                                             -
 -                           R E F E R E N C E S                               -
 -                                                                             -
 -------------------------------------------------------------------------------
 
 CP2K version 2024.1 (Development Version), the CP2K developers group (2024).
 CP2K is freely available from https://www.cp2k.org/ .

 Kuehne,Thomas D.; Iannuzzi,Marcella; Del Ben,Mauro;
 Rybkin,Vladimir V.; Seewald,Patrick; Stein,Frederick; Laino,Teodoro;
 Khaliullin,Rustam Z.; Schuett,Ole; Schiffmann,Florian; Golze,Dorothea;
 Wilhelm,Jan; Chulkov,Sergey; Bani-Hashemian,Mohammad Hossein;
 Weber,Valery; Borstnik,Urban; Taillefumier,Mathieu;
 Jakobovits,Alice Shoshana; Lazzaro,Alfio; Pabst,Hans; Mueller,Tiziano;
 Schade,Robert; Guidon,Manuel; Andermatt,Samuel; Holmberg,Nico;
 Schenter,Gregory K.; Hehn,Anna; Bussy,Augustin; Belleflamme,Fabian;
 Tabacchi,Gloria; Gloess,Andreas; Lass,Michael; Bethune,Iain;
 Mundy,Christopher J.; Plessl,Christian; Watkins,Matt;
 VandeVondele,Joost; Krack,Matthias; Hutter,Juerg. 
 The Journal of Chemical Physics, 152 (19), (2020). 
 CP2K: An electronic structure and molecular dynamics software package -
 Quickstep: Efficient and accurate electronic structure calculations.
 https://doi.org/10.1063/5.0007045

 Goerigk, Lars; Hansen, Andreas; Bauer, Christoph; Ehrlich, Stephan;
 Najibi, Asim; Grimme, Stefan. , 19 (48), (2017). 
 A look at the density functional theory zoo with the advanced GMTKN55 database
 for general main group thermochemistry, kinetics and noncovalent interactions.
 https://doi.org/10.1039/C7CP04913G

 Schuett, Ole; Messmer, Peter; Hutter, Juerg; VandeVondele, Joost. 
 Electronic Structure Calculations on Graphics Processing Units, John
 Wiley & Sons, Ltd, 173-190 (2016). 
 GPU-Accelerated Sparse Matrix-Matrix Multiplication for
 Linear Scaling Density Functional Theory.
 https://doi.org/10.1002/9781118670712.ch8

 Heinecke, A; Henry, G; Hutchinson, M; Pabst, H. 
 Proceedings of Intl. Supercomputing Conference, 981-991 (2016). 
 LIBXSMM: Accelerating Small Matrix Multiplications
 by Runtime Code Generation.
 https://doi.org/10.1109/SC.2016.83

 Borstnik, U; VandeVondele, J; Weber, V; Hutter, J. 
 PARALLEL COMPUTING, 40 (5-6), 47-58 (2014). 
 Sparse matrix multiplication: The distributed block-compressed sparse
 row library.
 https://doi.org/10.1016/j.parco.2014.03.012

 Hutter, J; Iannuzzi, M; Schiffmann, F; VandeVondele, J. 
 WIREs Comput Mol Sci., 4 (1), 15-25 (2014). 
 CP2K: atomistic simulations of condensed matter systems.
 https://doi.org/10.1002/wcms.1159

 Grimme, S; Ehrlich, S; Goerigk, L. 
 JOURNAL OF COMPUTATIONAL CHEMISTRY, 32, 1456 (2011). 
 Effect of the damping function in dispersion corrected density functional theory.
 https://doi.org/10.1002/jcc.21759

 Grimme, S; Antony, J; Ehrlich, S; Krieg, H. 
 JOURNAL OF CHEMICAL PHYSICS, 132 (15), 154104 (2010). 
 A consistent and accurate ab initio parametrization of density
 functional dispersion correction (DFT-D) for the 94 elements H-Pu.
 https://doi.org/10.1063/1.3382344

 Guidon, M; Hutter, J; VandeVondele, J. 
 JOURNAL OF CHEMICAL THEORY AND COMPUTATION, 5 (11), 3010-3021 (2009). 
 Robust Periodic Hartree-Fock Exchange for Large-Scale Simulations Using
 Gaussian Basis Sets.
 https://doi.org/10.1021/ct900494g

 Guidon, M; Schiffmann, F; Hutter, J; VandeVondele, J. 
 JOURNAL OF CHEMICAL PHYSICS, 128 (21), 214104 (2008). 
 Ab initio molecular dynamics using hybrid density functionals.
 https://doi.org/10.1063/1.2931945

 VandeVondele, J; Hutter, J. 
 JOURNAL OF CHEMICAL PHYSICS, 127 (11), 114105 (2007). 
 Gaussian basis sets for accurate calculations on molecular systems in
 gas and condensed phases.
 https://doi.org/10.1063/1.2770708

 Frigo, M; Johnson, SG. 
 PROCEEDINGS OF THE IEEE, 93 (2), 216-231 (2005). 
 The design and implementation of FFTW3.
 https://doi.org/10.1109/JPROC.2004.840301

 Iannuzzi, M; Chassaing, T; Wallman, T; Hutter, J. 
 CHIMIA, 59 (7-8), 499-503 (2005). 
 Ground and excited state density functional calculations with the
 Gaussian and augmented-plane-wave method.
 https://doi.org/10.2533/000942905777676164

 VandeVondele, J; Hutter, J. 
 JOURNAL OF CHEMICAL PHYSICS, 118 (10), 4365-4369 (2003). 
 An efficient orbital transformation method for electronic structure
 calculations.
 https://doi.org/10.1063/1.1543154

 Martin,Richard L.. 
 The Journal of Chemical Physics, 118 (11), 4775-4777 (2003). 
 Natural transition orbitals.
 https://doi.org/10.1063/1.1558471

 Lippert, G; Hutter, J; Parrinello, M. 
 THEORETICAL CHEMISTRY ACCOUNTS, 103 (2), 124-140 (1999). 
 The Gaussian and augmented-plane-wave density functional method for ab
 initio molecular dynamics simulations.
 https://doi.org/10.1007/s002140050523

 Krack, M; Parrinello, M. 
 PHYSICAL CHEMISTRY CHEMICAL PHYSICS, 2 (10), 2105-2112 (2000). 
 All-electron ab-initio molecular dynamics.
 https://doi.org/10.1039/b001167n

 Martyna, GJ; Tuckerman, ME. 
 JOURNAL OF CHEMICAL PHYSICS, 110 (6), 2810-2821 (1999). 
 A reciprocal space based method for treating long range interactions in
 ab initio and force-field-based calculations in clusters.
 https://doi.org/10.1063/1.477923

 BECKE, AD. PHYSICAL REVIEW A, 38 (6), 3098-3100 (1988). 
 DENSITY-FUNCTIONAL EXCHANGE-ENERGY APPROXIMATION WITH CORRECT
 ASYMPTOTIC-BEHAVIOR.
 https://doi.org/10.1103/PhysRevA.38.3098

 LEE, CT; YANG, WT; PARR, RG. 
 PHYSICAL REVIEW B, 37 (2), 785-789 (1988). 
 DEVELOPMENT OF THE COLLE-SALVETTI CORRELATION-ENERGY FORMULA INTO A
 FUNCTIONAL OF THE ELECTRON-DENSITY.
 https://doi.org/10.1103/PhysRevB.37.785

 VOSKO, SH; WILK, L; NUSAIR, M. 
 CANADIAN JOURNAL OF PHYSICS, 58 (8), 1200-1211 (1980). 
 ACCURATE SPIN-DEPENDENT ELECTRON LIQUID CORRELATION ENERGIES FOR LOCAL
 SPIN-DENSITY CALCULATIONS - A CRITICAL ANALYSIS.
 https://doi.org/10.1139/p80-159


 -------------------------------------------------------------------------------
 -                                                                             -
 -                                T I M I N G                                  -
 -                                                                             -
 -------------------------------------------------------------------------------
 SUBROUTINE                       CALLS  ASD         SELF TIME        TOTAL TIME
                                MAXIMUM       AVERAGE  MAXIMUM  AVERAGE  MAXIMUM
 CP2K                                 1  1.0    0.008    0.014  189.504  189.504
 qs_forces                            1  2.0    0.000    0.001  188.943  188.943
 qs_energies                          1  3.0    0.000    0.000  123.846  123.846
 qs_energies_properties               1  4.0    0.000    0.000  109.325  109.325
 tddfpt                               1  5.0    0.000    0.000  109.325  109.325
 tddfpt_energies                      1  6.0    0.000    0.000   85.977   85.978
 tddfpt_davidson_solver               2  7.0    0.001    0.002   85.488   85.488
 tddfpt_compute_Aop_evects           12  8.0    0.000    0.000   85.250   85.251
 fft_wrap_pw1pw2                   3906 12.2    0.025    0.028   54.283   56.774
 excited_state_energy                 2  3.5    0.001    0.001   56.410   56.410
 fft_wrap_pw1pw2_200               2723 13.4    1.984    2.076   52.653   55.221
 fhxc_kernel                         12  9.0    0.003    0.003   54.407   54.408
 fft3d_ps                          3906 14.2   24.890   27.847   40.745   44.427
 integrate_four_center              280 10.6    0.044    0.046   42.825   42.833
 response_equation                    1  4.0    0.000    0.000   42.164   42.164
 linres_solver                        1  5.0    0.001    0.003   42.141   42.141
 apply_op                            44  6.0    0.001    0.001   42.095   42.095
 integrate_four_center_main         280 11.6    0.018    0.022   38.702   40.568
 integrate_four_center_bin        26600 12.6   38.684   40.552   38.684   40.552
 derivatives_four_center              4  8.5    0.004    0.005   32.662   33.092
 derivatives_four_center_main         4  9.5    0.000    0.000   32.602   33.032
 derivatives_four_center_bin        416 10.5   31.250   33.008   31.250   33.008
 xc_pw_derive                      1416 12.4    0.009    0.009   30.665   31.980
 tddfpt_apply_hfx                    12  9.0    0.001    0.001   30.773   30.773
 tddft_hfx_matrix                   216 10.0    0.004    0.004   30.464   30.465
 apply_op_2_dft                      43  7.0    0.002    0.002   25.066   25.177
 tddfpt_forces_main                   1  6.0    0.000    0.000   23.295   23.295
 tddfpt_forces                        1  7.0    0.000    0.000   22.378   22.378
 prepare_gapw_den                   223  8.8    0.004    0.004   22.100   22.263
 tddfpt_force_direct                  1  8.0    0.000    0.000   21.965   21.965
 tddfpt_kernel_force                  1  9.0    0.000    0.000   21.957   21.957
 fhxc_force                           1 10.0    0.001    0.001   21.957   21.957
 rebuild_ks_matrix                   17  6.8    0.000    0.000   21.616   21.616
 qs_ks_build_kohn_sham_matrix        17  7.8    0.002    0.002   21.616   21.616
 xc_pw_divergence                   213 12.3    0.004    0.005   18.344   19.929
 tddfpt_apply_xc_analytic           108 10.0    0.709    0.780   18.232   18.414
 mp_alltoall_z22v                  3906 16.2    9.755   16.675    9.755   16.675
 calculate_rho_elec                 217  9.6    0.165    0.173   16.253   16.257
 qs_rho_update_rho_low              212  8.7    0.002    0.002   16.243   16.244
 xc_calc_2nd_deriv_analytical       797 11.1    1.229    1.361   14.376   14.766
 qs_fxc_analytic                     44  8.0    0.001    0.002   14.404   14.496
 scf_env_do_scf                       1  4.0    0.000    0.000   14.379   14.379
 response_force                       1  4.0    0.004    0.006   14.245   14.245
 hfx_ks_matrix                       17  8.8    0.000    0.000   13.694   13.695
 density_rs2pw                      217 10.6    0.006    0.007   12.872   13.412
 xc_rho_set_and_dset_create         106 12.1    1.063    1.184   11.367   13.305
 qs_ks_update_qs_env                 18  6.0    0.000    0.000   12.966   12.966
 calculate_rho0_atom                657  9.8   11.418   12.513   11.418   12.513
 yz_to_x                           1994 15.3    2.733    3.035    8.616   12.294
 integrate_v_rspace                 177  9.4    0.003    0.003   11.741   12.270
 qs_vxc_create                       60 11.8    0.001    0.001   11.691   11.693
 xc_vxc_pw_create                    60 12.8    0.104    0.113   11.690   11.692
 scf_env_do_scf_inner_loop           16  5.0    0.000    0.001   10.510   10.511
 xc_calc_2nd_deriv                   45  8.9    0.296    0.332    9.197   10.316
 tddfpt_apply_coulomb               108 10.0    0.001    0.001    9.077   10.065
 x_to_yz                           1912 15.0    3.321    3.748    7.194   10.022
 potential_pw2rs                    177 10.4    0.011    0.011    8.171    8.700
 qs_ks_update_qs_env_forces           1  3.0    0.000    0.000    8.651    8.651
 qs_fgxc_gdiff                        1 11.0    0.000    0.000    8.338    8.339
 qs_fxc_fdiff                         7 12.0    0.000    0.000    8.318    8.319
 put_rho0_on_grid                   219  9.8    0.193    0.220    6.997    7.197
 pw_gather_p                       1994 14.3    6.021    6.759    6.021    6.759
 xc_prep_2nd_deriv                   46  8.9    0.000    0.000    5.636    6.584
 transfer_rs2pw                    1088 11.4    0.007    0.009    6.040    6.554
 apply_hfx                           43  7.0    0.000    0.001    6.108    6.114
 hfx_matrix                          43  8.0    0.001    0.001    6.105    6.112
 transfer_pw2rs                     882 11.3    0.004    0.005    5.760    5.797
 transfer_rs2pw_200                 437 12.2    2.491    2.582    4.927    5.456
 integrate_vhg0_rspace              173  9.9    1.014    1.105    5.376    5.387
 pw_poisson_solve                   174  9.9    0.002    0.002    4.061    5.181
 mp_sum_d                          2232  9.1    3.138    4.933    3.138    4.933
 transfer_pw2rs_200                 351 12.2    2.255    2.293    4.494    4.571
 xc_functional_eval                3304 11.9    0.003    0.005    2.417    4.341
 mp_waitany                       15760 13.2    3.613    4.159    3.613    4.159
 mp_sync                           1478 12.3    2.192    4.055    2.192    4.055
 grid_collocate_task_list           217 10.6    2.833    3.905    2.833    3.905
 init_scf_loop                        1  5.0    0.000    0.000    3.868    3.868
 calculate_rho_atom                 669  9.8    2.275    3.809    2.276    3.809
 -------------------------------------------------------------------------------

 The number of warnings for this run is : 0
 
 -------------------------------------------------------------------------------
  **** **** ******  **  PROGRAM ENDED AT                 2025-01-06 11:05:59.079
 ***** ** ***  *** **   PROGRAM RAN ON                               nesh-srp122
 **    ****   ******    PROGRAM RAN BY                                  suphc356
 ***** **    ** ** **   PROGRAM PROCESS ID                               2040889
  **** **  *******  **  PROGRAM STOPPED IN /gxfs_work/cau/suphc356/NEWTONX_proje
                                           ct/Pyrazin_molecule/CP2K_GAPW_B3LYP_d
                                           ef2_TZVP/MOLDYN_BA_again/TRAJECTORIES
                                           /TRAJ93/TEMP
