 DBCSR| CPU Multiplication driver                                           XSMM (U)
 DBCSR| Multrec recursion limit                                              512 (U)
 DBCSR| Multiplication stack size                                           1000 (D)
 DBCSR| Maximum elements for images                                    UNLIMITED (U)
 DBCSR| Multiplicative factor virtual images                                   1 (U)
 DBCSR| Use multiplication densification                                       T (D)
 DBCSR| Multiplication size stacks                                             3 (U)
 DBCSR| Use memory pool for CPU allocation                                     F (U)
 DBCSR| Number of 3D layers                                               SINGLE (U)
 DBCSR| Use MPI memory allocation                                              F (U)
 DBCSR| Use RMA algorithm                                                      F (U)
 DBCSR| Use Communication thread                                               T (U)
 DBCSR| Communication thread load                                             87 (D)
 DBCSR| MPI: My process id                                                     0
 DBCSR| MPI: Number of processes                                              16
 DBCSR| OMP: Current number of threads                                         1
 DBCSR| OMP: Max number of threads                                             1
 DBCSR| Split modifier for TAS multiplication algorithm                  1.0E+00 (U)


  **** **** ******  **  PROGRAM STARTED AT               2025-01-05 09:53:05.319
 ***** ** ***  *** **   PROGRAM STARTED ON                           nesh-clk410
 **    ****   ******    PROGRAM STARTED BY                              suphc356
 ***** **    ** ** **   PROGRAM PROCESS ID                               2559432
  **** **  *******  **  PROGRAM STARTED IN /gxfs_work/cau/suphc356/NEWTONX_proje
                                           ct/Pyrazin_molecule/CP2K_GAPW_B3LYP_d
                                           ef2_TZVP/MOLDYN_BA_again/TRAJECTORIES
                                           /TRAJ23/TEMP

 CP2K| version string:                 CP2K version 2024.1 (Development Version)
 CP2K| source code revision number:                                  git:990486a
 CP2K| cp2kflags: omp libint fftw3 libxc libgrpp parallel mpi_f08 scalapack cosm
 CP2K|            a xsmm spglib mkl
 CP2K| is freely available from                            https://www.cp2k.org/
 CP2K| Program compiled at                          Mon Mar 11 08:48:45 CET 2024
 CP2K| Program compiled on                                           nesh-login2
 CP2K| Program compiled for                                                local
 CP2K| Data directory path                 /gxfs_work/cau/suphc356/cp2k_gcc/data
 CP2K| Input file name                                                  cp2k.inp

 GLOBAL| Force Environment number                                              1
 GLOBAL| Basis set file name                                     EMSL_BASIS_SETS
 GLOBAL| Potential file name                                      ALL_POTENTIALS
 GLOBAL| MM Potential file name                                     MM_POTENTIAL
 GLOBAL| Coordinate file name                                      __STD_INPUT__
 GLOBAL| Method name                                                        CP2K
 GLOBAL| Project name                                               testsuite_ad
 GLOBAL| Run type                                                   ENERGY_FORCE
 GLOBAL| FFT library                                                       FFTW3
 GLOBAL| Diagonalization library                                       ScaLAPACK
 GLOBAL| DGEMM library                                                      BLAS
 GLOBAL| Orthonormality check for eigenvectors                          DISABLED
 GLOBAL| Matrix multiplication library                                     COSMA
 GLOBAL| All-to-all communication in single precision                          F
 GLOBAL| FFTs using library dependent lengths                                  F
 GLOBAL| Grid backend                                                       AUTO
 GLOBAL| Global print level                                               MEDIUM
 GLOBAL| MPI I/O enabled                                                       T
 GLOBAL| Total number of message passing processes                            16
 GLOBAL| Number of threads for this process                                    1
 GLOBAL| This output is from process                                           0
 GLOBAL| Stack size for threads created by OpenMP (OMP_STACKSIZE)           256M
 GLOBAL| CPU model name                Intel(R) Xeon(R) Gold 6226R CPU @ 2.90GHz
 GLOBAL| CPUID                                                              1003
 GLOBAL| Compiled for CPUID                                                    0

 *** HINT in environment.F:920 :: The compiler target flags (generic) used ***
 *** to build this binary cannot exploit all extensions of this CPU model  ***
 *** (x86_avx512). Consider compiler target flags as part of FCFLAGS and   ***
 *** CFLAGS (ARCH file).                                                   ***


 MEMORY| system memory details [Kb]
 MEMORY|                        rank 0           min           max       average
 MEMORY| MemTotal            196680912     196680912     196680912     196680912
 MEMORY| MemFree             176266828     176266828     176266828     176266828
 MEMORY| Buffers                654284        654284        654284        654284
 MEMORY| Cached                1427180       1427180       1427180       1427180
 MEMORY| Slab                  3903688       3903688       3903688       3903688
 MEMORY| SReclaimable           270008        270008        270008        270008
 MEMORY| MemLikelyFree       178618300     178618300     178618300     178618300


 *** Fundamental physical constants (SI units) ***

 *** Literature: B. J. Mohr and B. N. Taylor,
 ***             CODATA recommended values of the fundamental physical
 ***             constants: 2006, Web Version 5.1
 ***             http://physics.nist.gov/constants

 Speed of light in vacuum [m/s]                             2.99792458000000E+08
 Magnetic constant or permeability of vacuum [N/A**2]       1.25663706143592E-06
 Electric constant or permittivity of vacuum [F/m]          8.85418781762039E-12
 Planck constant (h) [J*s]                                  6.62606896000000E-34
 Planck constant (h-bar) [J*s]                              1.05457162825177E-34
 Elementary charge [C]                                      1.60217648700000E-19
 Electron mass [kg]                                         9.10938215000000E-31
 Electron g factor [ ]                                     -2.00231930436220E+00
 Proton mass [kg]                                           1.67262163700000E-27
 Fine-structure constant                                    7.29735253760000E-03
 Rydberg constant [1/m]                                     1.09737315685270E+07
 Avogadro constant [1/mol]                                  6.02214179000000E+23
 Boltzmann constant [J/K]                                   1.38065040000000E-23
 Atomic mass unit [kg]                                      1.66053878200000E-27
 Bohr radius [m]                                            5.29177208590000E-11

 *** Conversion factors ***

 [u] -> [a.u.]                                              1.82288848426455E+03
 [Angstrom] -> [Bohr] = [a.u.]                              1.88972613288564E+00
 [a.u.] = [Bohr] -> [Angstrom]                              5.29177208590000E-01
 [a.u.] -> [s]                                              2.41888432650478E-17
 [a.u.] -> [fs]                                             2.41888432650478E-02
 [a.u.] -> [J]                                              4.35974393937059E-18
 [a.u.] -> [N]                                              8.23872205491840E-08
 [a.u.] -> [K]                                              3.15774647902944E+05
 [a.u.] -> [kJ/mol]                                         2.62549961709828E+03
 [a.u.] -> [kcal/mol]                                       6.27509468713739E+02
 [a.u.] -> [Pa]                                             2.94210107994716E+13
 [a.u.] -> [bar]                                            2.94210107994716E+08
 [a.u.] -> [atm]                                            2.90362800883016E+08
 [a.u.] -> [eV]                                             2.72113838565563E+01
 [a.u.] -> [Hz]                                             6.57968392072181E+15
 [a.u.] -> [1/cm] (wave numbers)                            2.19474631370540E+05
 [a.u./Bohr**2] -> [1/cm]                                   5.14048714338585E+03
 

 CELL_TOP| Volume [angstrom^3]:                                      2744.000000
 CELL_TOP| Vector a [angstrom    14.000     0.000     0.000   |a| =    14.000000
 CELL_TOP| Vector b [angstrom     0.000    14.000     0.000   |b| =    14.000000
 CELL_TOP| Vector c [angstrom     0.000     0.000    14.000   |c| =    14.000000
 CELL_TOP| Angle (b,c), alpha [degree]:                                90.000000
 CELL_TOP| Angle (a,c), beta  [degree]:                                90.000000
 CELL_TOP| Angle (a,b), gamma [degree]:                                90.000000
 CELL_TOP| Numerically orthorhombic:                                         YES
 CELL_TOP| Periodicity                                                      NONE

 CELL| Volume [angstrom^3]:                                          2744.000000
 CELL| Vector a [angstrom]:      14.000     0.000     0.000   |a| =    14.000000
 CELL| Vector b [angstrom]:       0.000    14.000     0.000   |b| =    14.000000
 CELL| Vector c [angstrom]:       0.000     0.000    14.000   |c| =    14.000000
 CELL| Angle (b,c), alpha [degree]:                                    90.000000
 CELL| Angle (a,c), beta  [degree]:                                    90.000000
 CELL| Angle (a,b), gamma [degree]:                                    90.000000
 CELL| Numerically orthorhombic:                                             YES
 CELL| Periodicity                                                          NONE

 CELL_REF| Volume [angstrom^3]:                                      2744.000000
 CELL_REF| Vector a [angstrom    14.000     0.000     0.000   |a| =    14.000000
 CELL_REF| Vector b [angstrom     0.000    14.000     0.000   |b| =    14.000000
 CELL_REF| Vector c [angstrom     0.000     0.000    14.000   |c| =    14.000000
 CELL_REF| Angle (b,c), alpha [degree]:                                90.000000
 CELL_REF| Angle (a,c), beta  [degree]:                                90.000000
 CELL_REF| Angle (a,b), gamma [degree]:                                90.000000
 CELL_REF| Numerically orthorhombic:                                         YES
 CELL_REF| Periodicity                                                      NONE

 *******************************************************************************
 *******************************************************************************
 **                                                                           **
 **     #####                         ##              ##                      **
 **    ##   ##            ##          ##              ##                      **
 **   ##     ##                       ##            ######                    **
 **   ##     ##  ##   ##  ##   #####  ##  ##   ####   ##    #####    #####    **
 **   ##     ##  ##   ##  ##  ##      ## ##   ##      ##   ##   ##  ##   ##   **
 **   ##  ## ##  ##   ##  ##  ##      ####     ###    ##   ######   ######    **
 **    ##  ###   ##   ##  ##  ##      ## ##      ##   ##   ##       ##        **
 **     #######   #####   ##   #####  ##  ##  ####    ##    #####   ##        **
 **           ##                                                    ##        **
 **                                                                           **
 **                                                ... make the atoms dance   **
 **                                                                           **
 **            Copyright (C) by CP2K developers group (2000-2024)             **
 **                      J. Chem. Phys. 152, 194103 (2020)                    **
 **                                                                           **
 *******************************************************************************

 DFT| Spin restricted Kohn-Sham (RKS) calculation                            RKS
 DFT| Multiplicity                                                             1
 DFT| Number of spin states                                                    1
 DFT| Charge                                                                   0
 DFT| Self-interaction correction (SIC)                                       NO
 DFT| Cutoffs: density                                              1.000000E-10
 DFT|          gradient                                             1.000000E-10
 DFT|          tau                                                  1.000000E-10
 DFT|          cutoff_smoothing_range                               0.000000E+00
 DFT| XC density smoothing                                                  NONE
 DFT| XC derivatives                                                          PW

 FUNCTIONAL| BECKE88:
 FUNCTIONAL| A. Becke, Phys. Rev. A 38, 3098 (1988) {LDA version}               
 FUNCTIONAL| LYP:
 FUNCTIONAL| C. Lee, W. Yang, R.G. Parr, Phys. Rev. B, 37, 785 (1988) {LDA versi
 FUNCTIONAL| on}                                                                
 FUNCTIONAL| VWN:
 FUNCTIONAL| S. H. Vosko, L. Wilk and M. Nusair, Can. J. Phys. 58, 1200 (1980) {
 FUNCTIONAL| LDA version}                                                       
 FUNCTIONAL| XALPHA:
 FUNCTIONAL| Dirac/Slater local exchange; parameter=  0.666 {LDA}               

 vdW POTENTIAL|                                                   Pair Potential
 vdW POTENTIAL|          DFT-D3 (Version 3.1)
 vdW POTENTIAL|          Potential Form: S. Grimme et al, JCP 132: 154104 (2010)
 vdW POTENTIAL|          Zero Damping
 vdW POTENTIAL|          Cutoff Radius [Bohr]:                             37.79
 vdW POTENTIAL|          s6 Scaling Factor:                               1.0000
 vdW POTENTIAL|          sr6 Scaling Factor:                              1.2610
 vdW POTENTIAL|          s8 Scaling Factor:                               1.7030
 vdW POTENTIAL|          Cutoff for CN calculation:                   0.1000E-05

 QS| Method:                                                                GAPW
 QS| Density plane wave grid type                        NON-SPHERICAL FULLSPACE
 QS| Number of grid levels:                                                    4
 QS| Density cutoff [a.u.]:                                                200.0
 QS| Multi grid cutoff [a.u.]: 1) grid level                               200.0
 QS|                           2) grid level                                66.7
 QS|                           3) grid level                                22.2
 QS|                           4) grid level                                 7.4
 QS| Grid level progression factor:                                          3.0
 QS| Relative density cutoff [a.u.]:                                        30.0
 QS| Interaction thresholds: eps_pgf_orb:                                1.0E-07
 QS|                         eps_filter_matrix:                          0.0E+00
 QS|                         eps_core_charge:                            1.0E-16
 QS|                         eps_rho_gspace:                             1.0E-14
 QS|                         eps_rho_rspace:                             1.0E-14
 QS|                         eps_gvg_rspace:                             1.0E-07
 QS|                         eps_ppl:                                    1.0E-02
 QS|                         eps_ppnl:                                   1.0E-09
 QS| GAPW|      One center basis extended with primitives (small:s)
 QS| GAPW|                   eps_fit:                                    1.0E-04
 QS| GAPW|                   eps_iso:                                    1.0E-12
 QS| GAPW|                   eps_svd:                                    1.0E-08
 QS| GAPW|                   eps_cpc:                                    1.0E-14
 QS| GAPW|   atom-r-grid: quadrature:                                     GC_LOG
 QS| GAPW|      atom-s-grid:  max l :                                          6
 QS| GAPW|      max_l_rho0 :                                                   4


 ATOMIC KIND INFORMATION

  1. Atomic kind: n                                     Number of atoms:       2

     Orbital Basis Set                                        Ahlrichs-def2-TZVP

       Number of orbital shell sets:                                          11
       Number of orbital shells:                                              11
       Number of primitive Cartesian functions:                               20
       Number of Cartesian basis functions:                                   36
       Number of spherical basis functions:                                   31
       Norm type:                                                              2

       Normalised Cartesian orbitals:

                        Set   Shell   Orbital            Exponent    Coefficient

                          1       1    1s            19730.800647       0.695604
                                                      2957.895874       1.298610
                                                       673.221336       2.219088
                                                       190.682495       3.463661
                                                        62.295442       4.696756
                                                        22.654161       4.952251

                          2       1    1s                8.979148       2.388068
                                                         3.686300       0.733788

                          3       1    1s                0.846601       0.629027

                          4       1    1s                0.336471       0.314863

                          5       1    1s                0.136477       0.160031

                          6       1    1px              49.200381       2.126481
                                                        11.346791       2.327937
                                                         3.427397       2.048573
                                                         1.178553       1.260732
                          6       1    1py              49.200381       2.126481
                                                        11.346791       2.327937
                                                         3.427397       2.048573
                                                         1.178553       1.260732
                          6       1    1pz              49.200381       2.126481
                                                        11.346791       2.327937
                                                         3.427397       2.048573
                                                         1.178553       1.260732

                          7       1    1px               0.416422       0.476823
                          7       1    1py               0.416422       0.476823
                          7       1    1pz               0.416422       0.476823

                          8       1    1px               0.142608       0.124917
                          8       1    1py               0.142608       0.124917
                          8       1    1pz               0.142608       0.124917

                          9       1    1dx2              1.654000       3.970513
                          9       1    1dxy              1.654000       6.877130
                          9       1    1dxz              1.654000       6.877130
                          9       1    1dy2              1.654000       3.970513
                          9       1    1dyz              1.654000       6.877130
                          9       1    1dz2              1.654000       3.970513

                         10       1    1dx2              0.469000       0.437484
                         10       1    1dxy              0.469000       0.757744
                         10       1    1dxz              0.469000       0.757744
                         10       1    1dy2              0.469000       0.437484
                         10       1    1dyz              0.469000       0.757744
                         10       1    1dz2              0.469000       0.437484

                         11       1    1fx3              1.093000       1.798249
                         11       1    1fx2y             1.093000       4.021007
                         11       1    1fx2z             1.093000       4.021007
                         11       1    1fxy2             1.093000       4.021007
                         11       1    1fxyz             1.093000       6.964588
                         11       1    1fxz2             1.093000       4.021007
                         11       1    1fy3              1.093000       1.798249
                         11       1    1fy2z             1.093000       4.021007
                         11       1    1fyz2             1.093000       4.021007
                         11       1    1fz3              1.093000       1.798249

       Atomic covalent radius [Angstrom]:                                  0.750

       Atomic van der Waals radius [Angstrom]:                             1.550

     The atoms of this atomic kind are PAW atoms (GAPW):
       Hard Gaussian function radius:                                      1.400
       Rho0 radius:                                                        1.400
       Maximum GTO radius used for PAW projector construction:            24.566

     GAPW Soft Basis Set                                 Ahlrichs-def2-TZVP_soft

       Number of orbital shell sets:                                          11
       Number of orbital shells:                                              11
       Number of primitive Cartesian functions:                               11
       Number of Cartesian basis functions:                                   36
       Number of spherical basis functions:                                   31
       Norm type:                                                              2

       Normalised Cartesian orbitals:

                        Set   Shell   Orbital            Exponent    Coefficient

                          1       1    1s         

                          2       1    1s                3.686300       0.733788

                          3       1    1s                0.846601       0.629027

                          4       1    1s                0.336471       0.314863

                          5       1    1s                0.136477       0.160031

                          6       1    1px               3.427397       2.048573
                                                         1.178553       1.260732
                          6       1    1py               3.427397       2.048573
                                                         1.178553       1.260732
                          6       1    1pz               3.427397       2.048573
                                                         1.178553       1.260732

                          7       1    1px               0.416422       0.476823
                          7       1    1py               0.416422       0.476823
                          7       1    1pz               0.416422       0.476823

                          8       1    1px               0.142608       0.124917
                          8       1    1py               0.142608       0.124917
                          8       1    1pz               0.142608       0.124917

                          9       1    1dx2              1.654000       3.970513
                          9       1    1dxy              1.654000       6.877130
                          9       1    1dxz              1.654000       6.877130
                          9       1    1dy2              1.654000       3.970513
                          9       1    1dyz              1.654000       6.877130
                          9       1    1dz2              1.654000       3.970513

                         10       1    1dx2              0.469000       0.437484
                         10       1    1dxy              0.469000       0.757744
                         10       1    1dxz              0.469000       0.757744
                         10       1    1dy2              0.469000       0.437484
                         10       1    1dyz              0.469000       0.757744
                         10       1    1dz2              0.469000       0.437484

                         11       1    1fx3              1.093000       1.798249
                         11       1    1fx2y             1.093000       4.021007
                         11       1    1fx2z             1.093000       4.021007
                         11       1    1fxy2             1.093000       4.021007
                         11       1    1fxyz             1.093000       6.964588
                         11       1    1fxz2             1.093000       4.021007
                         11       1    1fy3              1.093000       1.798249
                         11       1    1fy2z             1.093000       4.021007
                         11       1    1fyz2             1.093000       4.021007
                         11       1    1fz3              1.093000       1.798249

     AE Potential information for                                            ALL

       Description:                                       All-electron potential
                                          Krack, Parrinello, PCCP 2, 2105 (2000)

       Gaussian exponent of the core charge distribution:               5.979100
       Electronic configuration (s p d ...):                           4   3   0

  2. Atomic kind: c                                     Number of atoms:       4

     Orbital Basis Set                                        Ahlrichs-def2-TZVP

       Number of orbital shell sets:                                          11
       Number of orbital shells:                                              11
       Number of primitive Cartesian functions:                               20
       Number of Cartesian basis functions:                                   36
       Number of spherical basis functions:                                   31
       Norm type:                                                              2

       Normalised Cartesian orbitals:

                        Set   Shell   Orbital            Exponent    Coefficient

                          1       1    1s            13575.349682       0.543591
                                                      2035.233368       1.014554
                                                       463.225624       1.731573
                                                       131.200196       2.691038
                                                        42.853016       3.604455
                                                        15.584186       3.702556

                          2       1    1s                6.206714       1.838354
                                                         2.576490       0.544758

                          3       1    1s                0.576963       0.471815

                          4       1    1s                0.229728       0.236494

                          5       1    1s                0.095164       0.122114

                          6       1    1px              34.697232       1.359665
                                                         7.958262       1.451259
                                                         2.378083       1.270923
                                                         0.814332       0.802572
                          6       1    1py              34.697232       1.359665
                                                         7.958262       1.451259
                                                         2.378083       1.270923
                                                         0.814332       0.802572
                          6       1    1pz              34.697232       1.359665
                                                         7.958262       1.451259
                                                         2.378083       1.270923
                                                         0.814332       0.802572

                          7       1    1px               0.288875       0.301876
                          7       1    1py               0.288875       0.301876
                          7       1    1pz               0.288875       0.301876

                          8       1    1px               0.100568       0.080727
                          8       1    1py               0.100568       0.080727
                          8       1    1pz               0.100568       0.080727

                          9       1    1dx2              1.097000       1.935401
                          9       1    1dxy              1.097000       3.352214
                          9       1    1dxz              1.097000       3.352214
                          9       1    1dy2              1.097000       1.935401
                          9       1    1dyz              1.097000       3.352214
                          9       1    1dz2              1.097000       1.935401

                         10       1    1dx2              0.318000       0.221644
                         10       1    1dxy              0.318000       0.383899
                         10       1    1dxz              0.318000       0.383899
                         10       1    1dy2              0.318000       0.221644
                         10       1    1dyz              0.318000       0.383899
                         10       1    1dz2              0.318000       0.221644

                         11       1    1fx3              0.761000       0.796288
                         11       1    1fx2y             0.761000       1.780553
                         11       1    1fx2z             0.761000       1.780553
                         11       1    1fxy2             0.761000       1.780553
                         11       1    1fxyz             0.761000       3.084008
                         11       1    1fxz2             0.761000       1.780553
                         11       1    1fy3              0.761000       0.796288
                         11       1    1fy2z             0.761000       1.780553
                         11       1    1fyz2             0.761000       1.780553
                         11       1    1fz3              0.761000       0.796288

       Atomic covalent radius [Angstrom]:                                  0.770

       Atomic van der Waals radius [Angstrom]:                             1.700

     The atoms of this atomic kind are PAW atoms (GAPW):
       Hard Gaussian function radius:                                      1.520
       Rho0 radius:                                                        1.520
       Maximum GTO radius used for PAW projector construction:            24.566

     GAPW Soft Basis Set                                 Ahlrichs-def2-TZVP_soft

       Number of orbital shell sets:                                          11
       Number of orbital shells:                                              11
       Number of primitive Cartesian functions:                               11
       Number of Cartesian basis functions:                                   36
       Number of spherical basis functions:                                   31
       Norm type:                                                              2

       Normalised Cartesian orbitals:

                        Set   Shell   Orbital            Exponent    Coefficient

                          1       1    1s         

                          2       1    1s                2.576490       0.544758

                          3       1    1s                0.576963       0.471815

                          4       1    1s                0.229728       0.236494

                          5       1    1s                0.095164       0.122114

                          6       1    1px               2.378083       1.270923
                                                         0.814332       0.802572
                          6       1    1py               2.378083       1.270923
                                                         0.814332       0.802572
                          6       1    1pz               2.378083       1.270923
                                                         0.814332       0.802572

                          7       1    1px               0.288875       0.301876
                          7       1    1py               0.288875       0.301876
                          7       1    1pz               0.288875       0.301876

                          8       1    1px               0.100568       0.080727
                          8       1    1py               0.100568       0.080727
                          8       1    1pz               0.100568       0.080727

                          9       1    1dx2              1.097000       1.935401
                          9       1    1dxy              1.097000       3.352214
                          9       1    1dxz              1.097000       3.352214
                          9       1    1dy2              1.097000       1.935401
                          9       1    1dyz              1.097000       3.352214
                          9       1    1dz2              1.097000       1.935401

                         10       1    1dx2              0.318000       0.221644
                         10       1    1dxy              0.318000       0.383899
                         10       1    1dxz              0.318000       0.383899
                         10       1    1dy2              0.318000       0.221644
                         10       1    1dyz              0.318000       0.383899
                         10       1    1dz2              0.318000       0.221644

                         11       1    1fx3              0.761000       0.796288
                         11       1    1fx2y             0.761000       1.780553
                         11       1    1fx2z             0.761000       1.780553
                         11       1    1fxy2             0.761000       1.780553
                         11       1    1fxyz             0.761000       3.084008
                         11       1    1fxz2             0.761000       1.780553
                         11       1    1fy3              0.761000       0.796288
                         11       1    1fy2z             0.761000       1.780553
                         11       1    1fyz2             0.761000       1.780553
                         11       1    1fz3              0.761000       0.796288

     AE Potential information for                                            ALL

       Description:                                       All-electron potential
                                          Krack, Parrinello, PCCP 2, 2105 (2000)

       Gaussian exponent of the core charge distribution:               4.109048
       Electronic configuration (s p d ...):                           4   2   0

  3. Atomic kind: h                                     Number of atoms:       4

     Orbital Basis Set                                        Ahlrichs-def2-TZVP

       Number of orbital shell sets:                                           4
       Number of orbital shells:                                               4
       Number of primitive Cartesian functions:                                6
       Number of Cartesian basis functions:                                    6
       Number of spherical basis functions:                                    6
       Norm type:                                                              2

       Normalised Cartesian orbitals:

                        Set   Shell   Orbital            Exponent    Coefficient

                          1       1    1s               34.061341       0.255630
                                                         5.123575       0.461360
                                                         1.164663       0.681121

                          2       1    1s                0.327230       0.308355

                          3       1    1s                0.103072       0.129648

                          4       1    1px               0.800000       1.078456
                          4       1    1py               0.800000       1.078456
                          4       1    1pz               0.800000       1.078456

       Atomic covalent radius [Angstrom]:                                  0.320

       Atomic van der Waals radius [Angstrom]:                             1.090

     The atoms of this atomic kind are PAW atoms (GAPW):
       Hard Gaussian function radius:                                      1.000
       Rho0 radius:                                                        1.000
       Maximum GTO radius used for PAW projector construction:            24.566

     GAPW Soft Basis Set                                 Ahlrichs-def2-TZVP_soft

       Number of orbital shell sets:                                           4
       Number of orbital shells:                                               4
       Number of primitive Cartesian functions:                                5
       Number of Cartesian basis functions:                                    6
       Number of spherical basis functions:                                    6
       Norm type:                                                              2

       Normalised Cartesian orbitals:

                        Set   Shell   Orbital            Exponent    Coefficient

                          1       1    1s                5.123575       0.461360
                                                         1.164663       0.681121

                          2       1    1s                0.327230       0.308355

                          3       1    1s                0.103072       0.129648

                          4       1    1px               0.800000       1.078456
                          4       1    1py               0.800000       1.078456
                          4       1    1pz               0.800000       1.078456

     AE Potential information for                                            ALL

       Description:                                       All-electron potential
                                          Krack, Parrinello, PCCP 2, 2105 (2000)

       Gaussian exponent of the core charge distribution:              12.500000
       Electronic configuration (s p d ...):                           1   0   0


 MOLECULE KIND INFORMATION


 All atoms are their own molecule, skipping detailed information


 TOTAL NUMBERS AND MAXIMUM NUMBERS

  Total number of            - Atomic kinds:                                   3
                             - Atoms:                                         10
                             - Shell sets:                                    82
                             - Shells:                                        82
                             - Primitive Cartesian functions:                144
                             - Cartesian basis functions:                    240
                             - Spherical basis functions:                    210

  Maximum angular momentum of the orbital basis functions:                     3


 MODULE QUICKSTEP: ATOMIC COORDINATES IN ANGSTROM

   Atom Kind Element         X             Y             Z       Z(eff)     Mass
      1    1 n     7      7.069301      8.112872      7.646086   7.0000  14.0067
      2    1 n     7      6.934601      5.842432      6.555315   7.0000  14.0067
      3    2 c     6      7.050155      7.055297      8.488170   6.0000  12.0107
      4    2 c     6      6.931449      5.825249      7.808602   6.0000  12.0107
      5    2 c     6      7.174690      8.217986      6.409190   6.0000  12.0107
      6    2 c     6      7.092930      6.948900      5.678017   6.0000  12.0107
      7    3 h     1      7.413766      6.983340      9.431773   1.0000   1.0079
      8    3 h     1      6.586234      4.816297      8.202701   1.0000   1.0079
      9    3 h     1      6.860638      9.183703      5.935657   1.0000   1.0079
     10    3 h     1      6.772572      7.045275      4.568227   1.0000   1.0079



 SCF PARAMETERS         Density guess:                                   RESTART
                        --------------------------------------------------------
                        max_scf:                                              50
                        max_scf_history:                                       0
                        max_diis:                                              4
                        --------------------------------------------------------
                        eps_scf:                                        1.00E-08
                        eps_scf_history:                                0.00E+00
                        eps_diis:                                       1.00E-01
                        eps_eigval:                                     1.00E-05
                        --------------------------------------------------------
                        level_shift [a.u.]:                             0.000000
                        --------------------------------------------------------
                        Outer loop SCF in use 
                        No variables optimised in outer loop
                        eps_scf                                         1.00E-08
                        max_scf                                              900
                        No outer loop optimization
                        step_size                                       5.00E-01

 PW_GRID| Information for grid number                                          1
 PW_GRID| Grid distributed over                                    16 processors
 PW_GRID| Real space group dimensions                                    16    1
 PW_GRID| the grid is blocked:                                                NO
 PW_GRID| Cutoff [a.u.]                                                    400.0
 PW_GRID| spherical cutoff:                                                   NO
 PW_GRID|   Bounds   1           -120     119                Points:         240
 PW_GRID|   Bounds   2           -120     119                Points:         240
 PW_GRID|   Bounds   3           -120     119                Points:         240
 PW_GRID| Volume element (a.u.^3)  0.1340E-02     Volume (a.u.^3)     18517.4301
 PW_GRID| Grid span                                                    FULLSPACE
 PW_GRID|   Distribution                         Average         Max         Min
 PW_GRID|   G-Vectors                           864000.0      864000      864000
 PW_GRID|   G-Rays                                3600.0        3600        3600
 PW_GRID|   Real Space Points                   864000.0      864000      864000

 PW_GRID| Information for grid number                                          2
 PW_GRID| Number of the reference grid                                         1
 PW_GRID| Grid distributed over                                    16 processors
 PW_GRID| Real space group dimensions                                    16    1
 PW_GRID| the grid is blocked:                                                NO
 PW_GRID| Cutoff [a.u.]                                                    200.0
 PW_GRID| spherical cutoff:                                                   NO
 PW_GRID|   Bounds   1            -90      89                Points:         180
 PW_GRID|   Bounds   2            -90      89                Points:         180
 PW_GRID|   Bounds   3            -90      89                Points:         180
 PW_GRID| Volume element (a.u.^3)  0.3175E-02     Volume (a.u.^3)     18517.4301
 PW_GRID| Grid span                                                    FULLSPACE
 PW_GRID|   Distribution                         Average         Max         Min
 PW_GRID|   G-Vectors                           364500.0      364680      364320
 PW_GRID|   G-Rays                                2025.0        2026        2024
 PW_GRID|   Real Space Points                   364500.0      388800      356400

 PW_GRID| Information for grid number                                          3
 PW_GRID| Number of the reference grid                                         2
 PW_GRID| Grid distributed over                                    16 processors
 PW_GRID| Real space group dimensions                                    16    1
 PW_GRID| the grid is blocked:                                                NO
 PW_GRID| Cutoff [a.u.]                                                     66.7
 PW_GRID| spherical cutoff:                                                   NO
 PW_GRID|   Bounds   1            -50      49                Points:         100
 PW_GRID|   Bounds   2            -50      49                Points:         100
 PW_GRID|   Bounds   3            -50      49                Points:         100
 PW_GRID| Volume element (a.u.^3)  0.1852E-01     Volume (a.u.^3)     18517.4301
 PW_GRID| Grid span                                                    FULLSPACE
 PW_GRID|   Distribution                         Average         Max         Min
 PW_GRID|   G-Vectors                            62500.0       62600       62400
 PW_GRID|   G-Rays                                 625.0         626         624
 PW_GRID|   Real Space Points                    62500.0       70000       60000

 PW_GRID| Information for grid number                                          4
 PW_GRID| Number of the reference grid                                         2
 PW_GRID| Grid distributed over                                    16 processors
 PW_GRID| Real space group dimensions                                    16    1
 PW_GRID| the grid is blocked:                                                NO
 PW_GRID| Cutoff [a.u.]                                                     22.2
 PW_GRID| spherical cutoff:                                                   NO
 PW_GRID|   Bounds   1            -30      29                Points:          60
 PW_GRID|   Bounds   2            -30      29                Points:          60
 PW_GRID|   Bounds   3            -30      29                Points:          60
 PW_GRID| Volume element (a.u.^3)  0.8573E-01     Volume (a.u.^3)     18517.4301
 PW_GRID| Grid span                                                    FULLSPACE
 PW_GRID|   Distribution                         Average         Max         Min
 PW_GRID|   G-Vectors                            13500.0       13560       13440
 PW_GRID|   G-Rays                                 225.0         226         224
 PW_GRID|   Real Space Points                    13500.0       14400       10800

 PW_GRID| Information for grid number                                          5
 PW_GRID| Number of the reference grid                                         2
 PW_GRID| Grid distributed over                                    16 processors
 PW_GRID| Real space group dimensions                                    16    1
 PW_GRID| the grid is blocked:                                                NO
 PW_GRID| Cutoff [a.u.]                                                      7.4
 PW_GRID| spherical cutoff:                                                   NO
 PW_GRID|   Bounds   1            -18      17                Points:          36
 PW_GRID|   Bounds   2            -18      17                Points:          36
 PW_GRID|   Bounds   3            -18      17                Points:          36
 PW_GRID| Volume element (a.u.^3)  0.3969         Volume (a.u.^3)     18517.4301
 PW_GRID| Grid span                                                    FULLSPACE
 PW_GRID|   Distribution                         Average         Max         Min
 PW_GRID|   G-Vectors                             2916.0        2952        2880
 PW_GRID|   G-Rays                                  81.0          82          80
 PW_GRID|   Real Space Points                     2916.0        3888        2592

 POISSON| Solver                                          Martyna-Tuckerman (MT)
 POISSON| MT| Alpha                                                        7.000
 POISSON| MT| Relative cutoff                                                2.0
 POISSON| Periodicity                                                       NONE

 RS_GRID| Information for grid number                                          2
 RS_GRID|   Bounds   1            -90      89                Points:         180
 RS_GRID|   Bounds   2            -90      89                Points:         180
 RS_GRID|   Bounds   3            -90      89                Points:         180
 RS_GRID| Real space distribution over                                  4 groups
 RS_GRID| Real space distribution along direction                              2
 RS_GRID| Border size                                                         31
 RS_GRID| Real space distribution over                                  4 groups
 RS_GRID| Real space distribution along direction                              3
 RS_GRID| Border size                                                         31
 RS_GRID|   Distribution                         Average         Max         Min
 RS_GRID|   Planes                                 107.0         107         107
 RS_GRID|   Distribution                         Average         Max         Min
 RS_GRID|   Planes                                 107.0         107         107

 RS_GRID| Information for grid number                                          3
 RS_GRID|   Bounds   1            -50      49                Points:         100
 RS_GRID|   Bounds   2            -50      49                Points:         100
 RS_GRID|   Bounds   3            -50      49                Points:         100
 RS_GRID| Real space fully replicated
 RS_GRID| Group size                                                           1

 RS_GRID| Information for grid number                                          4
 RS_GRID|   Bounds   1            -30      29                Points:          60
 RS_GRID|   Bounds   2            -30      29                Points:          60
 RS_GRID|   Bounds   3            -30      29                Points:          60
 RS_GRID| Real space fully replicated
 RS_GRID| Group size                                                           1

 RS_GRID| Information for grid number                                          5
 RS_GRID|   Bounds   1            -18      17                Points:          36
 RS_GRID|   Bounds   2            -18      17                Points:          36
 RS_GRID|   Bounds   3            -18      17                Points:          36
 RS_GRID| Real space fully replicated
 RS_GRID| Group size                                                           1

  HFX_INFO| Replica ID:                                                        1
  HFX_INFO| FRACTION:                                               0.2000000000
  HFX_INFO| Interaction Potential:                                       COULOMB
  HFX_INFO| EPS_SCHWARZ:                                                 1.0E-10
  HFX_INFO| EPS_SCHWARZ_FORCES                                           1.0E-08
  HFX_INFO| EPS_STORAGE_SCALING:                                         1.0E+00
  HFX_INFO| NBINS:                                                            64
  HFX_INFO| BLOCK_SIZE:                                                        1
  HFX_INFO| Number of periodic shells considered:                           NONE
  HFX_INFO| Number of periodic cells considered:                            NONE


 Number of electrons:                                                         42
 Number of occupied orbitals:                                                 21
 Number of molecular orbitals:                                                21

 Number of orbital functions:                                                210
 Number of independent orbital functions:                                    210

 Extrapolation method: initial_guess


 SCF WAVEFUNCTION OPTIMIZATION

  ----------------------------------- OT ---------------------------------------
  Minimizer      : DIIS                : direct inversion
                                         in the iterative subspace
                                         using   7 DIIS vectors
                                         safer DIIS on
  Preconditioner : FULL_ALL            : diagonalization, state selective
  Precond_solver : DEFAULT
  stepsize       :    0.15000000                  energy_gap     :    0.08000000
  eps_taylor     :   0.10000E-15                  max_taylor     :             4
  ----------------------------------- OT ---------------------------------------

  Step     Update method      Time    Convergence         Total energy    Change
  ------------------------------------------------------------------------------

  HFX_MEM_INFO| Est. max. program size before HFX [MiB]:                     641
  HFX_MEM_INFO| Number of cart. primitive ERI's calculated:           1722153957
  HFX_MEM_INFO| Number of sph. ERI's calculated:                       316060549
  HFX_MEM_INFO| Number of sph. ERI's stored in-core:                   316060549
  HFX_MEM_INFO| Number of sph. ERI's stored on disk:                           0
  HFX_MEM_INFO| Number of sph. ERI's calculated on the fly:                    0
  HFX_MEM_INFO| Total memory consumption ERI's RAM [MiB]:                    940
  HFX_MEM_INFO| Whereof max-vals [MiB]:                                        5
  HFX_MEM_INFO| Total compression factor ERI's RAM:                         2.57
  HFX_MEM_INFO| Total memory consumption ERI's disk [MiB]:                     0
  HFX_MEM_INFO| Total compression factor ERI's disk:                        0.00
  HFX_MEM_INFO| Size of density/Fock matrix [MiB]:                             0
  HFX_MEM_INFO| Size of buffers [MiB]:                                         0
  HFX_MEM_INFO| Est. max. program size after HFX  [MiB]:                     699

     1 OT DIIS     0.15E+00    5.8     0.01230958      -264.0867507275 -2.64E+02
     2 OT DIIS     0.15E+00    1.0     0.00565294      -264.1573585224 -7.06E-02
     3 OT DIIS     0.15E+00    1.0     0.00328028      -264.1734278583 -1.61E-02
     4 OT DIIS     0.15E+00    1.0     0.00058526      -264.1756304745 -2.20E-03
     5 OT DIIS     0.15E+00    1.0     0.00022750      -264.1757245627 -9.41E-05
     6 OT DIIS     0.15E+00    1.0     0.00008139      -264.1757450469 -2.05E-05
     7 OT DIIS     0.15E+00    1.0     0.00003655      -264.1757480209 -2.97E-06
     8 OT DIIS     0.15E+00    1.0     0.00001432      -264.1757484765 -4.56E-07
     9 OT DIIS     0.15E+00    1.0     0.00000522      -264.1757485410 -6.45E-08
    10 OT DIIS     0.15E+00    1.0     0.00000197      -264.1757485525 -1.15E-08
    11 OT DIIS     0.15E+00    1.0     0.00000086      -264.1757485542 -1.76E-09
    12 OT DIIS     0.15E+00    1.0     0.00000038      -264.1757485546 -3.13E-10
    13 OT DIIS     0.15E+00    1.0     0.00000024      -264.1757485546 -3.51E-11
    14 OT DIIS     0.15E+00    1.0     0.00000008      -264.1757485546 -2.27E-13
    15 OT DIIS     0.15E+00    1.0     0.00000003      -264.1757485546  5.68E-12
    16 OT DIIS     0.15E+00    1.0     0.00000002      -264.1757485546  5.91E-12
    17 OT DIIS     0.15E+00    1.0     8.2308E-09      -264.1757485546  6.88E-12

  *** SCF run converged in    17 steps ***


  Electronic density on regular grids:        -30.6424638470       11.3575361530
  Core density on regular grids:               42.0000000000       -0.0000000000
  Hard and soft densities (Lebedev):          -97.4936487316      -86.1361125731
  Total Rho_soft + Rho1_hard - Rho1_soft      -42.0000000055
  Total charge density (r-space):              -0.0000000055
  Total Rho_soft + Rho0_soft (g-space):        -0.0000000312

  Overlap energy of the core charge distribution:               0.00001487263483
  Self energy of the core charge distribution:               -217.69203579805162
  Core Hamiltonian energy:                                    -41.77563057492129
  Hartree energy:                                             109.64797144803475
  Exchange-correlation energy:                                -11.22149460913565
  Hartree-Fock Exchange energy:                                -7.05907516342939
  Dispersion energy:                                           -0.00375629883281

  GAPW| Exc from hard and soft atomic rho1:                   -18.55588181336318
  GAPW| local Eh = 1 center integrals:                        -77.51586061750564

  Total energy:                                              -264.17574855456996

  outer SCF iter =    1 RMS gradient =   0.82E-08 energy =       -264.1757485546
  outer SCF loop converged in   1 iterations or   17 steps


 !-----------------------------------------------------------------------------!
                     Mulliken Population Analysis

 #  Atom  Element  Kind  Atomic population                           Net charge
       1     n        1          7.150821                             -0.150821
       2     n        1          7.185629                             -0.185629
       3     c        2          6.009260                             -0.009260
       4     c        2          6.060655                             -0.060655
       5     c        2          6.061534                             -0.061534
       6     c        2          6.024105                             -0.024105
       7     h        3          0.869732                              0.130268
       8     h        3          0.884362                              0.115638
       9     h        3          0.888683                              0.111317
      10     h        3          0.865218                              0.134782
 # Total charge                             42.000000                  0.000000

 !-----------------------------------------------------------------------------!

 !-----------------------------------------------------------------------------!
                           Hirshfeld Charges

  #Atom  Element  Kind  Ref Charge     Population                    Net charge
      1       n      1       7.000          7.287                        -0.287
      2       n      1       7.000          7.309                        -0.309
      3       c      2       6.000          6.320                        -0.320
      4       c      2       6.000          6.348                        -0.348
      5       c      2       6.000          6.346                        -0.346
      6       c      2       6.000          6.345                        -0.345
      7       h      3       1.000          0.506                         0.494
      8       h      3       1.000          0.514                         0.486
      9       h      3       1.000          0.514                         0.486
     10       h      3       1.000          0.499                         0.501

  Total Charge                                                            0.012
 !-----------------------------------------------------------------------------!

 *******************************************************************************
 **                                                                           **
 **         ######## #######   #######   ######## #######  ########           **
 **            ##    ##     ## ##     ## ##       ##   ##     ##              **
 **            ##    ##     ## ##     ## ######   #######     ##              **
 **            ##    ##     ## ##     ## ##       ##          ##              **
 **            ##    #######   #######   ##       ##          ##              **
 **                                                                           **
 *******************************************************************************
 KERNEL|                                                                    FULL
 FUNCTIONAL| BECKE88:
 FUNCTIONAL| A. Becke, Phys. Rev. A 38, 3098 (1988) {LDA version}               
 FUNCTIONAL| LYP:
 FUNCTIONAL| C. Lee, W. Yang, R.G. Parr, Phys. Rev. B, 37, 785 (1988) {LDA versi
 FUNCTIONAL| on}                                                                
 FUNCTIONAL| VWN:
 FUNCTIONAL| S. H. Vosko, L. Wilk and M. Nusair, Can. J. Phys. 58, 1200 (1980) {
 FUNCTIONAL| LDA version}                                                       
 FUNCTIONAL| XALPHA:
 FUNCTIONAL| Dirac/Slater local exchange; parameter=  0.666 {LDA}               
 KERNEL|                                                          Exact Exchange
 KERNEL| Spin symmetry of excitations                                    Singlet
 TDDFPT| Number of states calculated                                           9
 TDDFPT| Number of Davidson iterations                                       100
 TDDFPT| Davidson iteration convergence                                0.367E-09
 TDDFPT| Max. number of Krylov space vectors                                5000
 TDDFPT| Molecular Orbitals:        Spin       AOs       Occ      Virt     Total
 TDDFPT|                               1       210        21       189       210
 
 -------------------------------------------------------------------------------
 -                            TDDFPT Initial Guess                             -
 -------------------------------------------------------------------------------
          State         Occupied      ->      Virtual          Excitation
          number         orbital              orbital          energy (eV)
 -------------------------------------------------------------------------------
             1               21                   22              3.83707
             2               21                   23              5.09655
             3               20                   22              5.34244
             4               19                   22              5.79682
             5               20                   23              6.60192
             6               19                   23              7.05630
             7               18                   22              7.16205
             8               21                   24              7.33286
             9               21                   25              7.70433

      Number of active states:                                       3969
 -------------------------------------------------------------------------------
 
 -------------------------------------------------------------------------------
 -                      TDDFPT WAVEFUNCTION OPTIMIZATION                       -
 -------------------------------------------------------------------------------

          Step            Time         Convergence           Conv. states
 -------------------------------------------------------------------------------

    State    Exc. energy (eV)      Convergence (eV)
        1       2.6518108            -1.1853E+00
        2       3.8731648            -1.2234E+00
        3       4.2524596            -1.0900E+00
        4       5.4758631            -3.2095E-01
        5       6.0938484            -5.0807E-01
        6       6.5756236            -4.8067E-01
        7       6.7461125            -4.1594E-01
        8       7.7404524             4.0759E-01
        9       9.5748034             1.8705E+00

             1            10.4          6.8739E-02                      0

    State    Exc. energy (eV)      Convergence (eV)
        1       2.5743353            -7.7475E-02
        2       3.7998333            -7.3331E-02
        3       4.1783847            -7.4075E-02
        4       5.3914956            -8.4367E-02
        5       5.7278723            -3.6598E-01
        6       6.2252735            -3.5035E-01
        7       6.4538597            -2.9225E-01
        8       6.7171466            -1.0233E+00
        9       8.2874999            -1.2873E+00

             2            10.4          4.7308E-02                      0

    State    Exc. energy (eV)      Convergence (eV)
        1       2.5681170            -6.2183E-03
        2       3.7952431            -4.5902E-03
        3       4.1751452            -3.2395E-03
        4       5.3858387            -5.6569E-03
        5       5.6774333            -5.0439E-02
        6       6.1626020            -6.2671E-02
        7       6.4410814            -1.2778E-02
        8       6.6671320            -5.0015E-02
        9       7.3154615            -9.7204E-01

             3            10.4          3.5722E-02                      0

    State    Exc. energy (eV)      Convergence (eV)
        1       2.5679868            -1.3015E-04
        2       3.7950435            -1.9963E-04
        3       4.1750863            -5.8893E-05
        4       5.3856541            -1.8460E-04
        5       5.6758058            -1.6275E-03
        6       6.1608937            -1.7083E-03
        7       6.4396816            -1.3998E-03
        8       6.6603903            -6.7417E-03
        9       7.1171493            -1.9831E-01

             4            10.4          7.2878E-03                      0

    State    Exc. energy (eV)      Convergence (eV)
        1       2.5679857            -1.1219E-06
        2       3.7950403            -3.2274E-06
        3       4.1750852            -1.0416E-06
        4       5.3856507            -3.4290E-06
        5       5.6757723            -3.3511E-05
        6       6.1608137            -8.0070E-05
        7       6.4395916            -8.9931E-05
        8       6.6600652            -3.2508E-04
        9       7.0964016            -2.0748E-02

             5            10.4          7.6247E-04                      0

    State    Exc. energy (eV)      Convergence (eV)
        1       2.5679857            -1.0157E-08
        2       3.7950402            -3.4401E-08
        3       4.1750852            -1.3091E-08
        4       5.3856506            -6.5167E-08
        5       5.6757717            -5.9493E-07
        6       6.1608097            -3.9996E-06
        7       6.4395888            -2.8446E-06
        8       6.6600443            -2.0884E-05
        9       7.0932995            -3.1021E-03

             6            10.4          1.1400E-04                      0

    State    Exc. energy (eV)      Convergence (eV)
        1       2.5679857            -7.8129E-11
        2       3.7950402            -3.2638E-10
        3       4.1750852            -1.6542E-10
        4       5.3856506            -8.4607E-10
        5       5.6757717            -1.5770E-08
        6       6.1608095            -1.3652E-07
        7       6.4395887            -8.3093E-08
        8       6.6600433            -9.9364E-07
        9       7.0929715            -3.2800E-04

             7            10.4          1.2054E-05                      4

    State    Exc. energy (eV)      Convergence (eV)
        1       2.5679857            -4.0709E-13
        2       3.7950402            -2.2363E-12
        3       4.1750852            -1.8051E-12
        4       5.3856506            -9.6636E-12
        5       5.6757717            -1.8248E-10
        6       6.1608095            -1.8628E-09
        7       6.4395887            -1.1750E-09
        8       6.6600433            -2.7726E-08
        9       7.0929586            -1.2910E-05

             8            10.4          4.7444E-07                      7

    State    Exc. energy (eV)      Convergence (eV)
        1       2.5679857            -8.3079E-15
        2       3.7950402            -8.3079E-15
        3       4.1750852            -1.5861E-14
        4       5.3856506            -8.3079E-14
        5       5.6757717            -1.4826E-12
        6       6.1608095            -1.7040E-11
        7       6.4395887            -1.4397E-11
        8       6.6600433            -4.7970E-10
        9       7.0929583            -3.6357E-07

             9            10.4          1.3361E-08                      8

    State    Exc. energy (eV)      Convergence (eV)
        1       2.5679857             1.1329E-14
        2       3.7950402             9.8185E-15
        3       4.1750852             1.8126E-14
        4       5.3856506             7.5527E-15
        5       5.6757717            -1.0574E-14
        6       6.1608095            -1.2915E-13
        7       6.4395887            -1.7975E-13
        8       6.6600433            -5.4304E-12
        9       7.0929583            -6.1087E-09

            10            10.3          2.2449E-10                      9
 ------------------------- Restart Davidson iterations -------------------------

    State    Exc. energy (eV)      Convergence (eV)
        1       2.5679857            -6.0421E-15
        2       3.7950402            -1.2840E-14
        3       4.1750852            -3.7763E-15
        4       5.3856506            -9.0632E-15
        5       5.6757717             3.0211E-15
        6       6.1608095            -2.2658E-15
        7       6.4395887            -4.6071E-14
        8       6.6600433            -6.7974E-15
        9       7.0929583             7.8548E-14

            11            10.3          2.8866E-15                      9
 
 -------------------------------------------------------------------------------
 -  TDDFPT run converged in 11 iteration(s) 
 -------------------------------------------------------------------------------

 R-TDDFPT states of multiplicity 1
 Transition dipoles calculated using length formulation

         State    Excitation        Transition dipole (a.u.)        Oscillator
         number   energy (eV)       x           y           z     strength (a.u.)
         ------------------------------------------------------------------------
 TDDFPT|      1       2.56799   1.6168E-01 -7.7971E-02 -1.9355E-01   4.38398E-03
 TDDFPT|      2       3.79504   1.6786E-01  1.7574E-01 -3.2154E-02   5.58751E-03
 TDDFPT|      3       4.17509   1.5164E-02  1.0133E-01  2.1015E-01   5.59097E-03
 TDDFPT|      4       5.38565  -6.3543E-03 -2.0577E-01  1.6905E-01   9.36281E-03
 TDDFPT|      5       5.67577   5.1759E-02 -1.2209E-02 -8.2076E-01   9.40673E-02
 TDDFPT|      6       6.16081  -1.0204E-01  4.2648E-01  8.5116E-01   1.38374E-01
 TDDFPT|      7       6.43959   5.3621E-02 -7.7446E-02  2.5131E-01   1.13642E-02
 TDDFPT|      8       6.66004   6.7856E-03  1.0393E-01 -6.0077E-01   6.06604E-02
 TDDFPT|      9       7.09296   8.1975E-02  3.1473E-01 -5.2825E-01   6.68723E-02

 TDDFPT : CheckSum  =  0.608019E+00
 
 -------------------------------------------------------------------------------
 -                            Excitation analysis                              -
 -------------------------------------------------------------------------------
        State             Occupied              Virtual             Excitation
        number             orbital              orbital             amplitude
 -------------------------------------------------------------------------------
             1   2.56799 eV
                                21                   22              -0.982667
                                20                   22              -0.137219
                                19                   22               0.101387
             2   3.79504 eV
                                21                   23              -0.985619
                                20                   23              -0.089340
                                19                   23               0.070810
                                20                   22               0.067978
                                18                   22              -0.061798
             3   4.17509 eV
                                20                   22              -0.782447
                                19                   22              -0.607561
                                20                   23              -0.061358
                                21                   23              -0.060681
             4   5.38565 eV
                                20                   23              -0.819718
                                19                   23              -0.419501
                                18                   22               0.291829
                                19                   22               0.181344
                                21                   25              -0.109504
                                20                   22              -0.076678
             5   5.67577 eV
                                19                   23              -0.621650
                                19                   22              -0.469243
                                18                   22              -0.395396
                                20                   22               0.365979
                                18                   23               0.251044
                                21                   22              -0.086956
                                21                   24              -0.084426
             6   6.16081 eV
                                19                   22               0.543098
                                19                   23              -0.459600
                                18                   22              -0.413629
                                20                   22              -0.390962
                                20                   23               0.276189
                                21                   25              -0.135405
                                21                   22               0.107019
                                18                   23              -0.087250
                                17                   22              -0.075592
                                21                   23              -0.050037
             7   6.43959 eV
                                21                   24              -0.955818
                                21                   25              -0.172873
                                19                   23               0.150627
                                21                   28               0.114147
                                18                   22              -0.067258
                                21                   26              -0.053748
             8   6.66004 eV
                                21                   25              -0.849868
                                18                   22              -0.247104
                                19                   23               0.235771
                                21                   24               0.230892
                                21                   26              -0.199283
                                21                   28               0.106844
                                20                   23              -0.106672
                                18                   23               0.104071
                                20                   22               0.084699
                                21                   29              -0.068756
             9   7.09296 eV
                                21                   26               0.917693
                                21                   25              -0.279937
                                21                   27               0.175614
                                21                   29               0.100391
                                18                   22               0.097076
                                19                   23              -0.085410
                                18                   23               0.067526
 -------------------------------------------------------------------------------
 
 -------------------------------------------------------------------------------
 -                            Natural Orbital analysis                         -
 -------------------------------------------------------------------------------
   STATE NR.      1             2.56799 eV
     Particle-Hole state: 1   Spin:1     Eigenvalue: 0.99653   Sum Eigv: 0.99653
   STATE NR.      2             3.79504 eV
     Particle-Hole state: 1   Spin:1     Eigenvalue: 0.98643   Sum Eigv: 0.98643
   STATE NR.      3             4.17509 eV
     Particle-Hole state: 1   Spin:1     Eigenvalue: 0.98885   Sum Eigv: 0.98885
   STATE NR.      4             5.38565 eV
     Particle-Hole state: 1   Spin:1     Eigenvalue: 0.85270   Sum Eigv: 0.85270
     Particle-Hole state: 2   Spin:1     Eigenvalue: 0.12423   Sum Eigv: 0.97693
   STATE NR.      5             5.67577 eV
     Particle-Hole state: 1   Spin:1     Eigenvalue: 0.69399   Sum Eigv: 0.69399
     Particle-Hole state: 2   Spin:1     Eigenvalue: 0.28117   Sum Eigv: 0.97516
   STATE NR.      6             6.16081 eV
     Particle-Hole state: 1   Spin:1     Eigenvalue: 0.84273   Sum Eigv: 0.84273
     Particle-Hole state: 2   Spin:1     Eigenvalue: 0.09944   Sum Eigv: 0.94217
     Particle-Hole state: 3   Spin:1     Eigenvalue: 0.03202   Sum Eigv: 0.97419
     Particle-Hole state: 4   Spin:1     Eigenvalue: 0.00835   Sum Eigv: 0.98254
   STATE NR.      7             6.43959 eV
     Particle-Hole state: 1   Spin:1     Eigenvalue: 0.96271   Sum Eigv: 0.96271
     Particle-Hole state: 2   Spin:1     Eigenvalue: 0.02708   Sum Eigv: 0.98979
   STATE NR.      8             6.66004 eV
     Particle-Hole state: 1   Spin:1     Eigenvalue: 0.83849   Sum Eigv: 0.83849
     Particle-Hole state: 2   Spin:1     Eigenvalue: 0.12680   Sum Eigv: 0.96529
     Particle-Hole state: 3   Spin:1     Eigenvalue: 0.03033   Sum Eigv: 0.99563
   STATE NR.      9             7.09296 eV
     Particle-Hole state: 1   Spin:1     Eigenvalue: 0.96546   Sum Eigv: 0.96546
     Particle-Hole state: 2   Spin:1     Eigenvalue: 0.02473   Sum Eigv: 0.99018
 -------------------------------------------------------------------------------
 Ground state orbital alignment:         1.000000[MinVal]      1.000000[Average]
 Excitation vector alignment:                                           1.000000
 Calculate properties for state:   1      with excitation energy      2.56799 eV

  HFX_MEM_INFO| Number of cart. primitive DERIV's calculated:        10854164520
  HFX_MEM_INFO| Number of sph. DERIV's calculated:                    2796222960
  HFX_MEM_INFO| Number of sph. DERIV's stored in-core:                         0
  HFX_MEM_INFO| Number of sph. DERIV's calculated on the fly:         2796222960
  HFX_MEM_INFO| Total memory consumption DERIV's RAM [MiB]:                    0
[...]
  total size                         1.099731E+09
  min size                           0.000000E+00
  max size                          31.744000E+03
  average size                       7.611646E+03
 MPI breakdown and total messages size (bytes):
             size <=      128               80979                        0
       128 < size <=     8192               11703                 80162712
      8192 < size <=    32768               51798               1019567808
     32768 < size <=   131072                   0                        0
    131072 < size <=  4194304                   0                        0
   4194304 < size <= 16777216                   0                        0
  16777216 < size                               0                        0
 -------------------------------------------------------------------------------
 -                                                                             -
 -                      DBCSR MESSAGE PASSING PERFORMANCE                      -
 -                                                                             -
 -------------------------------------------------------------------------------
 ROUTINE             CALLS      AVE VOLUME [Bytes]
 MP_Bcast               28                     12.
 MP_Allreduce         6465                      8.
 MP_Alltoall         25077                   2766.
 MP_ISend            24076                   3582.
 MP_IRecv            24076                   3296.
 -------------------------------------------------------------------------------

 -------------------------------------------------------------------------------
 -                                                                             -
 -                                DBM STATISTICS                               -
 -                                                                             -
 -------------------------------------------------------------------------------
    M  x    N  x    K                                          COUNT     PERCENT
 -------------------------------------------------------------------------------

 -------------------------------------------------------------------------------
 -                                                                             -
 -                                GRID STATISTICS                              -
 -                                                                             -
 -------------------------------------------------------------------------------
 LP    KERNEL             BACKEND                              COUNT     PERCENT
 1     collocate ortho    CPU                                 249636      15.76%
 2     collocate ortho    CPU                                 203202      12.83%
 1     integrate ortho    CPU                                 197564      12.47%
 0     collocate ortho    CPU                                 173808      10.97%
 2     integrate ortho    CPU                                 164878      10.41%
 3     collocate ortho    CPU                                 136746       8.63%
 0     integrate ortho    CPU                                 133008       8.40%
 3     integrate ortho    CPU                                 112278       7.09%
 4     collocate ortho    CPU                                  58788       3.71%
 4     integrate ortho    CPU                                  50124       3.16%
 4     collocate general  CPU                                  20640       1.30%
 5     collocate ortho    CPU                                  17892       1.13%
 5     integrate ortho    CPU                                  15900       1.00%
 4     integrate general  CPU                                  15648       0.99%
 2     collocate general  CPU                                  13760       0.87%
 2     integrate general  CPU                                  10432       0.66%
 6     collocate ortho    CPU                                   4473       0.28%
 6     integrate ortho    CPU                                   4095       0.26%
 5     integrate general  CPU                                    384       0.02%
 3     integrate general  CPU                                    256       0.02%
 7     integrate ortho    CPU                                    168       0.01%
 0     collocate general  CPU                                    160       0.01%
 0     integrate general  CPU                                    160       0.01%
 -------------------------------------------------------------------------------

 MEMORY| Estimated peak process memory [MiB]                                1285

 -------------------------------------------------------------------------------
 ----                             MULTIGRID INFO                            ----
 -------------------------------------------------------------------------------
 count for grid        1:         109548          cutoff [a.u.]          200.00
 count for grid        2:          22508          cutoff [a.u.]           66.67
 count for grid        3:           8627          cutoff [a.u.]           22.22
 count for grid        4:           1858          cutoff [a.u.]            7.41
 total gridlevel count  :         142541

 -------------------------------------------------------------------------------
 -                                                                             -
 -                         MESSAGE PASSING PERFORMANCE                         -
 -                                                                             -
 -------------------------------------------------------------------------------

 ROUTINE             CALLS      AVE VOLUME [Bytes]
 MP_Group                5
 MP_Bcast             4841                 970325.
 MP_Allreduce        14537                 145750.
 MP_Sync              1402
 MP_Alltoall          4224               15035627.
 MP_SendRecv          9645                 233971.
 MP_ISendRecv        15840                 126068.
 MP_Wait             33676
 MP_comm_split          49
 MP_ISend            15367                 822523.
 MP_IRecv            15534                 813305.
 -------------------------------------------------------------------------------


 -------------------------------------------------------------------------------
 -                                                                             -
 -                           R E F E R E N C E S                               -
 -                                                                             -
 -------------------------------------------------------------------------------
 
 CP2K version 2024.1 (Development Version), the CP2K developers group (2024).
 CP2K is freely available from https://www.cp2k.org/ .

 Kuehne,Thomas D.; Iannuzzi,Marcella; Del Ben,Mauro;
 Rybkin,Vladimir V.; Seewald,Patrick; Stein,Frederick; Laino,Teodoro;
 Khaliullin,Rustam Z.; Schuett,Ole; Schiffmann,Florian; Golze,Dorothea;
 Wilhelm,Jan; Chulkov,Sergey; Bani-Hashemian,Mohammad Hossein;
 Weber,Valery; Borstnik,Urban; Taillefumier,Mathieu;
 Jakobovits,Alice Shoshana; Lazzaro,Alfio; Pabst,Hans; Mueller,Tiziano;
 Schade,Robert; Guidon,Manuel; Andermatt,Samuel; Holmberg,Nico;
 Schenter,Gregory K.; Hehn,Anna; Bussy,Augustin; Belleflamme,Fabian;
 Tabacchi,Gloria; Gloess,Andreas; Lass,Michael; Bethune,Iain;
 Mundy,Christopher J.; Plessl,Christian; Watkins,Matt;
 VandeVondele,Joost; Krack,Matthias; Hutter,Juerg. 
 The Journal of Chemical Physics, 152 (19), (2020). 
 CP2K: An electronic structure and molecular dynamics software package -
 Quickstep: Efficient and accurate electronic structure calculations.
 https://doi.org/10.1063/5.0007045

 Goerigk, Lars; Hansen, Andreas; Bauer, Christoph; Ehrlich, Stephan;
 Najibi, Asim; Grimme, Stefan. , 19 (48), (2017). 
 A look at the density functional theory zoo with the advanced GMTKN55 database
 for general main group thermochemistry, kinetics and noncovalent interactions.
 https://doi.org/10.1039/C7CP04913G

 Schuett, Ole; Messmer, Peter; Hutter, Juerg; VandeVondele, Joost. 
 Electronic Structure Calculations on Graphics Processing Units, John
 Wiley & Sons, Ltd, 173-190 (2016). 
 GPU-Accelerated Sparse Matrix-Matrix Multiplication for
 Linear Scaling Density Functional Theory.
 https://doi.org/10.1002/9781118670712.ch8

 Heinecke, A; Henry, G; Hutchinson, M; Pabst, H. 
 Proceedings of Intl. Supercomputing Conference, 981-991 (2016). 
 LIBXSMM: Accelerating Small Matrix Multiplications
 by Runtime Code Generation.
 https://doi.org/10.1109/SC.2016.83

 Borstnik, U; VandeVondele, J; Weber, V; Hutter, J. 
 PARALLEL COMPUTING, 40 (5-6), 47-58 (2014). 
 Sparse matrix multiplication: The distributed block-compressed sparse
 row library.
 https://doi.org/10.1016/j.parco.2014.03.012

 Hutter, J; Iannuzzi, M; Schiffmann, F; VandeVondele, J. 
 WIREs Comput Mol Sci., 4 (1), 15-25 (2014). 
 CP2K: atomistic simulations of condensed matter systems.
 https://doi.org/10.1002/wcms.1159

 Grimme, S; Ehrlich, S; Goerigk, L. 
 JOURNAL OF COMPUTATIONAL CHEMISTRY, 32, 1456 (2011). 
 Effect of the damping function in dispersion corrected density functional theory.
 https://doi.org/10.1002/jcc.21759

 Grimme, S; Antony, J; Ehrlich, S; Krieg, H. 
 JOURNAL OF CHEMICAL PHYSICS, 132 (15), 154104 (2010). 
 A consistent and accurate ab initio parametrization of density
 functional dispersion correction (DFT-D) for the 94 elements H-Pu.
 https://doi.org/10.1063/1.3382344

 Guidon, M; Hutter, J; VandeVondele, J. 
 JOURNAL OF CHEMICAL THEORY AND COMPUTATION, 5 (11), 3010-3021 (2009). 
 Robust Periodic Hartree-Fock Exchange for Large-Scale Simulations Using
 Gaussian Basis Sets.
 https://doi.org/10.1021/ct900494g

 Guidon, M; Schiffmann, F; Hutter, J; VandeVondele, J. 
 JOURNAL OF CHEMICAL PHYSICS, 128 (21), 214104 (2008). 
 Ab initio molecular dynamics using hybrid density functionals.
 https://doi.org/10.1063/1.2931945

 VandeVondele, J; Hutter, J. 
 JOURNAL OF CHEMICAL PHYSICS, 127 (11), 114105 (2007). 
 Gaussian basis sets for accurate calculations on molecular systems in
 gas and condensed phases.
 https://doi.org/10.1063/1.2770708

 Frigo, M; Johnson, SG. 
 PROCEEDINGS OF THE IEEE, 93 (2), 216-231 (2005). 
 The design and implementation of FFTW3.
 https://doi.org/10.1109/JPROC.2004.840301

 Iannuzzi, M; Chassaing, T; Wallman, T; Hutter, J. 
 CHIMIA, 59 (7-8), 499-503 (2005). 
 Ground and excited state density functional calculations with the
 Gaussian and augmented-plane-wave method.
 https://doi.org/10.2533/000942905777676164

 VandeVondele, J; Hutter, J. 
 JOURNAL OF CHEMICAL PHYSICS, 118 (10), 4365-4369 (2003). 
 An efficient orbital transformation method for electronic structure
 calculations.
 https://doi.org/10.1063/1.1543154

 Martin,Richard L.. 
 The Journal of Chemical Physics, 118 (11), 4775-4777 (2003). 
 Natural transition orbitals.
 https://doi.org/10.1063/1.1558471

 Lippert, G; Hutter, J; Parrinello, M. 
 THEORETICAL CHEMISTRY ACCOUNTS, 103 (2), 124-140 (1999). 
 The Gaussian and augmented-plane-wave density functional method for ab
 initio molecular dynamics simulations.
 https://doi.org/10.1007/s002140050523

 Krack, M; Parrinello, M. 
 PHYSICAL CHEMISTRY CHEMICAL PHYSICS, 2 (10), 2105-2112 (2000). 
 All-electron ab-initio molecular dynamics.
 https://doi.org/10.1039/b001167n

 Martyna, GJ; Tuckerman, ME. 
 JOURNAL OF CHEMICAL PHYSICS, 110 (6), 2810-2821 (1999). 
 A reciprocal space based method for treating long range interactions in
 ab initio and force-field-based calculations in clusters.
 https://doi.org/10.1063/1.477923

 BECKE, AD. PHYSICAL REVIEW A, 38 (6), 3098-3100 (1988). 
 DENSITY-FUNCTIONAL EXCHANGE-ENERGY APPROXIMATION WITH CORRECT
 ASYMPTOTIC-BEHAVIOR.
 https://doi.org/10.1103/PhysRevA.38.3098

 LEE, CT; YANG, WT; PARR, RG. 
 PHYSICAL REVIEW B, 37 (2), 785-789 (1988). 
 DEVELOPMENT OF THE COLLE-SALVETTI CORRELATION-ENERGY FORMULA INTO A
 FUNCTIONAL OF THE ELECTRON-DENSITY.
 https://doi.org/10.1103/PhysRevB.37.785

 VOSKO, SH; WILK, L; NUSAIR, M. 
 CANADIAN JOURNAL OF PHYSICS, 58 (8), 1200-1211 (1980). 
 ACCURATE SPIN-DEPENDENT ELECTRON LIQUID CORRELATION ENERGIES FOR LOCAL
 SPIN-DENSITY CALCULATIONS - A CRITICAL ANALYSIS.
 https://doi.org/10.1139/p80-159


 -------------------------------------------------------------------------------
 -                                                                             -
 -                                T I M I N G                                  -
 -                                                                             -
 -------------------------------------------------------------------------------
 SUBROUTINE                       CALLS  ASD         SELF TIME        TOTAL TIME
                                MAXIMUM       AVERAGE  MAXIMUM  AVERAGE  MAXIMUM
 CP2K                                 1  1.0    0.012    0.016  272.410  272.411
 qs_forces                            1  2.0    0.001    0.001  271.416  271.416
 qs_energies                          1  3.0    0.000    0.000  171.856  171.856
 qs_energies_properties               1  4.0    0.000    0.000  149.589  149.589
 tddfpt                               1  5.0    0.000    0.000  149.589  149.589
 tddfpt_energies                      1  6.0    0.000    0.000  115.058  115.059
 tddfpt_davidson_solver               2  7.0    0.002    0.003  114.328  114.329
 tddfpt_compute_Aop_evects           11  8.0    0.000    0.000  113.975  113.975
 excited_state_energy                 2  3.5    0.001    0.002   86.413   86.415
 fft_wrap_pw1pw2                   3820 12.1    0.042    0.048   73.652   78.271
 fft_wrap_pw1pw2_200               2667 13.4    2.193    2.283   71.338   75.814
 fhxc_kernel                         11  9.0    0.004    0.004   72.267   72.268
 response_equation                    1  4.0    0.000    0.000   64.977   64.977
 linres_solver                        1  5.0    0.001    0.004   64.943   64.943
 apply_op                            46  6.0    0.001    0.001   64.866   64.866
 integrate_four_center              265 10.5    0.057    0.060   60.057   60.067
 fft3d_ps                          3820 14.1   30.265   32.484   54.245   59.018
 integrate_four_center_main         265 11.5    0.023    0.032   55.395   56.732
 integrate_four_center_bin        25175 12.5   55.372   56.713   55.372   56.713
 derivatives_four_center              4  8.5    0.004    0.005   49.562   50.202
 derivatives_four_center_main         4  9.5    0.000    0.001   49.472   50.112
 derivatives_four_center_bin        414 10.5   47.607   49.031   47.607   49.031
 xc_pw_derive                      1386 12.4    0.011    0.012   41.003   43.127
 tddfpt_apply_hfx                    11  9.0    0.001    0.002   41.599   41.599
 tddft_hfx_matrix                   198 10.0    0.004    0.005   41.181   41.183
 apply_op_2_dft                      45  7.0    0.003    0.003   37.998   38.056
 prepare_gapw_den                   219  8.7    0.005    0.006   34.538   34.763
 tddfpt_forces_main                   1  6.0    0.000    0.000   34.451   34.451
 tddfpt_forces                        1  7.0    0.000    0.000   33.142   33.142
 rebuild_ks_matrix                   18  6.8    0.000    0.000   32.963   32.963
 qs_ks_build_kohn_sham_matrix        18  7.8    0.002    0.003   32.963   32.963
 tddfpt_force_direct                  1  8.0    0.000    0.000   32.537   32.537
 tddfpt_kernel_force                  1  9.0    0.000    0.000   32.528   32.528
 fhxc_force                           1 10.0    0.001    0.001   32.528   32.528
 xc_pw_divergence                   207 12.3    0.005    0.006   24.961   27.116
 calculate_rho_elec                 213  9.5    0.350    0.373   23.223   23.230
 qs_rho_update_rho_low              208  8.6    0.002    0.002   23.171   23.172
 tddfpt_apply_xc_analytic            99 10.0    1.172    1.290   22.837   23.015
 scf_env_do_scf                       1  4.0    0.000    0.000   22.062   22.062
 response_force                       1  4.0    0.005    0.006   21.435   21.435
 qs_fxc_analytic                     46  8.0    0.002    0.002   21.113   21.221
 hfx_ks_matrix                       18  8.8    0.001    0.001   20.750   20.750
 mp_alltoall_z22v                  3820 16.1   13.449   20.337   13.449   20.337
 calculate_rho0_atom                645  9.7   18.858   19.899   18.858   19.899
 qs_ks_update_qs_env                 19  6.0    0.000    0.000   19.878   19.878
 xc_rho_set_and_dset_create         109 12.0    1.970    2.266   16.601   19.877
 xc_calc_2nd_deriv_analytical       762 11.1    1.597    1.768   18.939   19.363
 density_rs2pw                      213 10.5    0.009    0.009   17.980   18.932
 yz_to_x                           1954 15.2    4.323    4.722   13.274   18.889
 integrate_v_rspace                 171  9.3    0.003    0.004   16.140   16.948
 qs_vxc_create                       61 11.7    0.001    0.001   16.885   16.892
 xc_vxc_pw_create                    61 12.7    0.173    0.187   16.884   16.891
 scf_env_do_scf_inner_loop           17  5.0    0.000    0.001   16.285   16.285
 xc_calc_2nd_deriv                   47  8.9    0.550    0.627   13.405   15.287
 tddfpt_apply_coulomb                99 10.0    0.002    0.002   12.193   13.604
 qs_ks_update_qs_env_forces           1  3.0    0.000    0.000   13.086   13.087
 potential_pw2rs                    171 10.3    0.017    0.018   11.272   12.081
 qs_fgxc_gdiff                        1 11.0    0.000    0.000   11.825   11.827
 qs_fxc_fdiff                         7 12.0    0.001    0.001   11.796   11.798
 x_to_yz                           1866 15.0    6.149    6.996   10.646   11.599
 put_rho0_on_grid                   215  9.7    0.392    0.439    9.999   10.272
 xc_prep_2nd_deriv                   48  8.9    0.000    0.000    8.317    9.941
 transfer_rs2pw                    1068 11.3    0.012    0.013    8.703    9.683
 apply_hfx                           45  7.0    0.001    0.001    9.472    9.479
 hfx_matrix                          45  8.0    0.001    0.001    9.468    9.475
 pw_gather_p                       1954 14.2    8.283    8.596    8.283    8.596
 transfer_rs2pw_200                 429 12.1    3.426    3.536    6.812    7.865
 integrate_vhg0_rspace              167  9.9    1.798    1.926    7.723    7.733
 transfer_pw2rs                     852 11.2    0.008    0.009    7.487    7.553
 pw_poisson_solve                   168  9.8    0.003    0.003    5.764    7.260
 xc_functional_eval                3220 11.9    0.004    0.008    3.840    7.008
 mp_sum_d                          2232  9.1    4.450    6.999    4.450    6.999
 pw_scatter_p                      1866 14.0    6.178    6.318    6.178    6.318
 mp_waitany                       15360 13.1    4.917    6.085    4.917    6.085
 transfer_pw2rs_200                 339 12.1    2.860    2.898    5.771    5.928
 grid_collocate_task_list           213 10.5    4.452    5.834    4.452    5.834
 init_scf_loop                        1  5.0    0.000    0.000    5.777    5.777
 calculate_rho_atom                 657  9.7    3.320    5.475    3.321    5.475
 -------------------------------------------------------------------------------

 The number of warnings for this run is : 0
 
 -------------------------------------------------------------------------------
  **** **** ******  **  PROGRAM ENDED AT                 2025-01-05 09:57:38.258
 ***** ** ***  *** **   PROGRAM RAN ON                               nesh-clk410
 **    ****   ******    PROGRAM RAN BY                                  suphc356
 ***** **    ** ** **   PROGRAM PROCESS ID                               2559432
  **** **  *******  **  PROGRAM STOPPED IN /gxfs_work/cau/suphc356/NEWTONX_proje
                                           ct/Pyrazin_molecule/CP2K_GAPW_B3LYP_d
                                           ef2_TZVP/MOLDYN_BA_again/TRAJECTORIES
                                           /TRAJ23/TEMP
