 DBCSR| CPU Multiplication driver                                           XSMM (U)
 DBCSR| Multrec recursion limit                                              512 (U)
 DBCSR| Multiplication stack size                                           1000 (D)
 DBCSR| Maximum elements for images                                    UNLIMITED (U)
 DBCSR| Multiplicative factor virtual images                                   1 (U)
 DBCSR| Use multiplication densification                                       T (D)
 DBCSR| Multiplication size stacks                                             3 (U)
 DBCSR| Use memory pool for CPU allocation                                     F (U)
 DBCSR| Number of 3D layers                                               SINGLE (U)
 DBCSR| Use MPI memory allocation                                              F (U)
 DBCSR| Use RMA algorithm                                                      F (U)
 DBCSR| Use Communication thread                                               T (U)
 DBCSR| Communication thread load                                             87 (D)
 DBCSR| MPI: My process id                                                     0
 DBCSR| MPI: Number of processes                                              16
 DBCSR| OMP: Current number of threads                                         1
 DBCSR| OMP: Max number of threads                                             1
 DBCSR| Split modifier for TAS multiplication algorithm                  1.0E+00 (U)


  **** **** ******  **  PROGRAM STARTED AT               2025-01-09 14:25:11.354
 ***** ** ***  *** **   PROGRAM STARTED ON                           nesh-clk353
 **    ****   ******    PROGRAM STARTED BY                              suphc356
 ***** **    ** ** **   PROGRAM PROCESS ID                               3119391
  **** **  *******  **  PROGRAM STARTED IN /gxfs_work/cau/suphc356/NEWTONX_proje
                                           ct/Pyrazin_molecule/CP2K_GAPW_B3LYP_d
                                           ef2_TZVP/MOLDYN_BA_again/TRAJECTORIES
                                           /TRAJ198/TEMP

 CP2K| version string:                 CP2K version 2024.1 (Development Version)
 CP2K| source code revision number:                                  git:990486a
 CP2K| cp2kflags: omp libint fftw3 libxc libgrpp parallel mpi_f08 scalapack cosm
 CP2K|            a xsmm spglib mkl
 CP2K| is freely available from                            https://www.cp2k.org/
 CP2K| Program compiled at                          Mon Mar 11 08:48:45 CET 2024
 CP2K| Program compiled on                                           nesh-login2
 CP2K| Program compiled for                                                local
 CP2K| Data directory path                 /gxfs_work/cau/suphc356/cp2k_gcc/data
 CP2K| Input file name                                                  cp2k.inp

 GLOBAL| Force Environment number                                              1
 GLOBAL| Basis set file name                                     EMSL_BASIS_SETS
 GLOBAL| Potential file name                                      ALL_POTENTIALS
 GLOBAL| MM Potential file name                                     MM_POTENTIAL
 GLOBAL| Coordinate file name                                      __STD_INPUT__
 GLOBAL| Method name                                                        CP2K
 GLOBAL| Project name                                               testsuite_ad
 GLOBAL| Run type                                                   ENERGY_FORCE
 GLOBAL| FFT library                                                       FFTW3
 GLOBAL| Diagonalization library                                       ScaLAPACK
 GLOBAL| DGEMM library                                                      BLAS
 GLOBAL| Orthonormality check for eigenvectors                          DISABLED
 GLOBAL| Matrix multiplication library                                     COSMA
 GLOBAL| All-to-all communication in single precision                          F
 GLOBAL| FFTs using library dependent lengths                                  F
 GLOBAL| Grid backend                                                       AUTO
 GLOBAL| Global print level                                               MEDIUM
 GLOBAL| MPI I/O enabled                                                       T
 GLOBAL| Total number of message passing processes                            16
 GLOBAL| Number of threads for this process                                    1
 GLOBAL| This output is from process                                           0
 GLOBAL| Stack size for threads created by OpenMP (OMP_STACKSIZE)           256M
 GLOBAL| CPU model name                Intel(R) Xeon(R) Gold 6226R CPU @ 2.90GHz
 GLOBAL| CPUID                                                              1003
 GLOBAL| Compiled for CPUID                                                    0

 *** HINT in environment.F:920 :: The compiler target flags (generic) used ***
 *** to build this binary cannot exploit all extensions of this CPU model  ***
 *** (x86_avx512). Consider compiler target flags as part of FCFLAGS and   ***
 *** CFLAGS (ARCH file).                                                   ***


 MEMORY| system memory details [Kb]
 MEMORY|                        rank 0           min           max       average
 MEMORY| MemTotal            196683224     196683224     196683224     196683224
 MEMORY| MemFree             176912200     176912200     176912200     176912200
 MEMORY| Buffers               1082484       1082484       1082484       1082484
 MEMORY| Cached                1118164       1118164       1118164       1118164
 MEMORY| Slab                  3123988       3123988       3123988       3123988
 MEMORY| SReclaimable           287208        287208        287208        287208
 MEMORY| MemLikelyFree       179400056     179400056     179400056     179400056


 *** Fundamental physical constants (SI units) ***

 *** Literature: B. J. Mohr and B. N. Taylor,
 ***             CODATA recommended values of the fundamental physical
 ***             constants: 2006, Web Version 5.1
 ***             http://physics.nist.gov/constants

 Speed of light in vacuum [m/s]                             2.99792458000000E+08
 Magnetic constant or permeability of vacuum [N/A**2]       1.25663706143592E-06
 Electric constant or permittivity of vacuum [F/m]          8.85418781762039E-12
 Planck constant (h) [J*s]                                  6.62606896000000E-34
 Planck constant (h-bar) [J*s]                              1.05457162825177E-34
 Elementary charge [C]                                      1.60217648700000E-19
 Electron mass [kg]                                         9.10938215000000E-31
 Electron g factor [ ]                                     -2.00231930436220E+00
 Proton mass [kg]                                           1.67262163700000E-27
 Fine-structure constant                                    7.29735253760000E-03
 Rydberg constant [1/m]                                     1.09737315685270E+07
 Avogadro constant [1/mol]                                  6.02214179000000E+23
 Boltzmann constant [J/K]                                   1.38065040000000E-23
 Atomic mass unit [kg]                                      1.66053878200000E-27
 Bohr radius [m]                                            5.29177208590000E-11

 *** Conversion factors ***

 [u] -> [a.u.]                                              1.82288848426455E+03
 [Angstrom] -> [Bohr] = [a.u.]                              1.88972613288564E+00
 [a.u.] = [Bohr] -> [Angstrom]                              5.29177208590000E-01
 [a.u.] -> [s]                                              2.41888432650478E-17
 [a.u.] -> [fs]                                             2.41888432650478E-02
 [a.u.] -> [J]                                              4.35974393937059E-18
 [a.u.] -> [N]                                              8.23872205491840E-08
 [a.u.] -> [K]                                              3.15774647902944E+05
 [a.u.] -> [kJ/mol]                                         2.62549961709828E+03
 [a.u.] -> [kcal/mol]                                       6.27509468713739E+02
 [a.u.] -> [Pa]                                             2.94210107994716E+13
 [a.u.] -> [bar]                                            2.94210107994716E+08
 [a.u.] -> [atm]                                            2.90362800883016E+08
 [a.u.] -> [eV]                                             2.72113838565563E+01
 [a.u.] -> [Hz]                                             6.57968392072181E+15
 [a.u.] -> [1/cm] (wave numbers)                            2.19474631370540E+05
 [a.u./Bohr**2] -> [1/cm]                                   5.14048714338585E+03
 

 CELL_TOP| Volume [angstrom^3]:                                      2744.000000
 CELL_TOP| Vector a [angstrom    14.000     0.000     0.000   |a| =    14.000000
 CELL_TOP| Vector b [angstrom     0.000    14.000     0.000   |b| =    14.000000
 CELL_TOP| Vector c [angstrom     0.000     0.000    14.000   |c| =    14.000000
 CELL_TOP| Angle (b,c), alpha [degree]:                                90.000000
 CELL_TOP| Angle (a,c), beta  [degree]:                                90.000000
 CELL_TOP| Angle (a,b), gamma [degree]:                                90.000000
 CELL_TOP| Numerically orthorhombic:                                         YES
 CELL_TOP| Periodicity                                                      NONE

 CELL| Volume [angstrom^3]:                                          2744.000000
 CELL| Vector a [angstrom]:      14.000     0.000     0.000   |a| =    14.000000
 CELL| Vector b [angstrom]:       0.000    14.000     0.000   |b| =    14.000000
 CELL| Vector c [angstrom]:       0.000     0.000    14.000   |c| =    14.000000
 CELL| Angle (b,c), alpha [degree]:                                    90.000000
 CELL| Angle (a,c), beta  [degree]:                                    90.000000
 CELL| Angle (a,b), gamma [degree]:                                    90.000000
 CELL| Numerically orthorhombic:                                             YES
 CELL| Periodicity                                                          NONE

 CELL_REF| Volume [angstrom^3]:                                      2744.000000
 CELL_REF| Vector a [angstrom    14.000     0.000     0.000   |a| =    14.000000
 CELL_REF| Vector b [angstrom     0.000    14.000     0.000   |b| =    14.000000
 CELL_REF| Vector c [angstrom     0.000     0.000    14.000   |c| =    14.000000
 CELL_REF| Angle (b,c), alpha [degree]:                                90.000000
 CELL_REF| Angle (a,c), beta  [degree]:                                90.000000
 CELL_REF| Angle (a,b), gamma [degree]:                                90.000000
 CELL_REF| Numerically orthorhombic:                                         YES
 CELL_REF| Periodicity                                                      NONE

 *******************************************************************************
 *******************************************************************************
 **                                                                           **
 **     #####                         ##              ##                      **
 **    ##   ##            ##          ##              ##                      **
 **   ##     ##                       ##            ######                    **
 **   ##     ##  ##   ##  ##   #####  ##  ##   ####   ##    #####    #####    **
 **   ##     ##  ##   ##  ##  ##      ## ##   ##      ##   ##   ##  ##   ##   **
 **   ##  ## ##  ##   ##  ##  ##      ####     ###    ##   ######   ######    **
 **    ##  ###   ##   ##  ##  ##      ## ##      ##   ##   ##       ##        **
 **     #######   #####   ##   #####  ##  ##  ####    ##    #####   ##        **
 **           ##                                                    ##        **
 **                                                                           **
 **                                                ... make the atoms dance   **
 **                                                                           **
 **            Copyright (C) by CP2K developers group (2000-2024)             **
 **                      J. Chem. Phys. 152, 194103 (2020)                    **
 **                                                                           **
 *******************************************************************************

 DFT| Spin restricted Kohn-Sham (RKS) calculation                            RKS
 DFT| Multiplicity                                                             1
 DFT| Number of spin states                                                    1
 DFT| Charge                                                                   0
 DFT| Self-interaction correction (SIC)                                       NO
 DFT| Cutoffs: density                                              1.000000E-10
 DFT|          gradient                                             1.000000E-10
 DFT|          tau                                                  1.000000E-10
 DFT|          cutoff_smoothing_range                               0.000000E+00
 DFT| XC density smoothing                                                  NONE
 DFT| XC derivatives                                                          PW

 FUNCTIONAL| BECKE88:
 FUNCTIONAL| A. Becke, Phys. Rev. A 38, 3098 (1988) {LDA version}               
 FUNCTIONAL| LYP:
 FUNCTIONAL| C. Lee, W. Yang, R.G. Parr, Phys. Rev. B, 37, 785 (1988) {LDA versi
 FUNCTIONAL| on}                                                                
 FUNCTIONAL| VWN:
 FUNCTIONAL| S. H. Vosko, L. Wilk and M. Nusair, Can. J. Phys. 58, 1200 (1980) {
 FUNCTIONAL| LDA version}                                                       
 FUNCTIONAL| XALPHA:
 FUNCTIONAL| Dirac/Slater local exchange; parameter=  0.666 {LDA}               

 vdW POTENTIAL|                                                   Pair Potential
 vdW POTENTIAL|          DFT-D3 (Version 3.1)
 vdW POTENTIAL|          Potential Form: S. Grimme et al, JCP 132: 154104 (2010)
 vdW POTENTIAL|          Zero Damping
 vdW POTENTIAL|          Cutoff Radius [Bohr]:                             37.79
 vdW POTENTIAL|          s6 Scaling Factor:                               1.0000
 vdW POTENTIAL|          sr6 Scaling Factor:                              1.2610
 vdW POTENTIAL|          s8 Scaling Factor:                               1.7030
 vdW POTENTIAL|          Cutoff for CN calculation:                   0.1000E-05

 QS| Method:                                                                GAPW
 QS| Density plane wave grid type                        NON-SPHERICAL FULLSPACE
 QS| Number of grid levels:                                                    4
 QS| Density cutoff [a.u.]:                                                200.0
 QS| Multi grid cutoff [a.u.]: 1) grid level                               200.0
 QS|                           2) grid level                                66.7
 QS|                           3) grid level                                22.2
 QS|                           4) grid level                                 7.4
 QS| Grid level progression factor:                                          3.0
 QS| Relative density cutoff [a.u.]:                                        30.0
 QS| Interaction thresholds: eps_pgf_orb:                                1.0E-07
 QS|                         eps_filter_matrix:                          0.0E+00
 QS|                         eps_core_charge:                            1.0E-16
 QS|                         eps_rho_gspace:                             1.0E-14
 QS|                         eps_rho_rspace:                             1.0E-14
 QS|                         eps_gvg_rspace:                             1.0E-07
 QS|                         eps_ppl:                                    1.0E-02
 QS|                         eps_ppnl:                                   1.0E-09
 QS| GAPW|      One center basis extended with primitives (small:s)
 QS| GAPW|                   eps_fit:                                    1.0E-04
 QS| GAPW|                   eps_iso:                                    1.0E-12
 QS| GAPW|                   eps_svd:                                    1.0E-08
 QS| GAPW|                   eps_cpc:                                    1.0E-14
 QS| GAPW|   atom-r-grid: quadrature:                                     GC_LOG
 QS| GAPW|      atom-s-grid:  max l :                                          6
 QS| GAPW|      max_l_rho0 :                                                   4


 ATOMIC KIND INFORMATION

  1. Atomic kind: n                                     Number of atoms:       2

     Orbital Basis Set                                        Ahlrichs-def2-TZVP

       Number of orbital shell sets:                                          11
       Number of orbital shells:                                              11
       Number of primitive Cartesian functions:                               20
       Number of Cartesian basis functions:                                   36
       Number of spherical basis functions:                                   31
       Norm type:                                                              2

       Normalised Cartesian orbitals:

                        Set   Shell   Orbital            Exponent    Coefficient

                          1       1    1s            19730.800647       0.695604
                                                      2957.895874       1.298610
                                                       673.221336       2.219088
                                                       190.682495       3.463661
                                                        62.295442       4.696756
                                                        22.654161       4.952251

                          2       1    1s                8.979148       2.388068
                                                         3.686300       0.733788

                          3       1    1s                0.846601       0.629027

                          4       1    1s                0.336471       0.314863

                          5       1    1s                0.136477       0.160031

                          6       1    1px              49.200381       2.126481
                                                        11.346791       2.327937
                                                         3.427397       2.048573
                                                         1.178553       1.260732
                          6       1    1py              49.200381       2.126481
                                                        11.346791       2.327937
                                                         3.427397       2.048573
                                                         1.178553       1.260732
                          6       1    1pz              49.200381       2.126481
                                                        11.346791       2.327937
                                                         3.427397       2.048573
                                                         1.178553       1.260732

                          7       1    1px               0.416422       0.476823
                          7       1    1py               0.416422       0.476823
                          7       1    1pz               0.416422       0.476823

                          8       1    1px               0.142608       0.124917
                          8       1    1py               0.142608       0.124917
                          8       1    1pz               0.142608       0.124917

                          9       1    1dx2              1.654000       3.970513
                          9       1    1dxy              1.654000       6.877130
                          9       1    1dxz              1.654000       6.877130
                          9       1    1dy2              1.654000       3.970513
                          9       1    1dyz              1.654000       6.877130
                          9       1    1dz2              1.654000       3.970513

                         10       1    1dx2              0.469000       0.437484
                         10       1    1dxy              0.469000       0.757744
                         10       1    1dxz              0.469000       0.757744
                         10       1    1dy2              0.469000       0.437484
                         10       1    1dyz              0.469000       0.757744
                         10       1    1dz2              0.469000       0.437484

                         11       1    1fx3              1.093000       1.798249
                         11       1    1fx2y             1.093000       4.021007
                         11       1    1fx2z             1.093000       4.021007
                         11       1    1fxy2             1.093000       4.021007
                         11       1    1fxyz             1.093000       6.964588
                         11       1    1fxz2             1.093000       4.021007
                         11       1    1fy3              1.093000       1.798249
                         11       1    1fy2z             1.093000       4.021007
                         11       1    1fyz2             1.093000       4.021007
                         11       1    1fz3              1.093000       1.798249

       Atomic covalent radius [Angstrom]:                                  0.750

       Atomic van der Waals radius [Angstrom]:                             1.550

     The atoms of this atomic kind are PAW atoms (GAPW):
       Hard Gaussian function radius:                                      1.400
       Rho0 radius:                                                        1.400
       Maximum GTO radius used for PAW projector construction:            24.566

     GAPW Soft Basis Set                                 Ahlrichs-def2-TZVP_soft

       Number of orbital shell sets:                                          11
       Number of orbital shells:                                              11
       Number of primitive Cartesian functions:                               11
       Number of Cartesian basis functions:                                   36
       Number of spherical basis functions:                                   31
       Norm type:                                                              2

       Normalised Cartesian orbitals:

                        Set   Shell   Orbital            Exponent    Coefficient

                          1       1    1s         

                          2       1    1s                3.686300       0.733788

                          3       1    1s                0.846601       0.629027

                          4       1    1s                0.336471       0.314863

                          5       1    1s                0.136477       0.160031

                          6       1    1px               3.427397       2.048573
                                                         1.178553       1.260732
                          6       1    1py               3.427397       2.048573
                                                         1.178553       1.260732
                          6       1    1pz               3.427397       2.048573
                                                         1.178553       1.260732

                          7       1    1px               0.416422       0.476823
                          7       1    1py               0.416422       0.476823
                          7       1    1pz               0.416422       0.476823

                          8       1    1px               0.142608       0.124917
                          8       1    1py               0.142608       0.124917
                          8       1    1pz               0.142608       0.124917

                          9       1    1dx2              1.654000       3.970513
                          9       1    1dxy              1.654000       6.877130
                          9       1    1dxz              1.654000       6.877130
                          9       1    1dy2              1.654000       3.970513
                          9       1    1dyz              1.654000       6.877130
                          9       1    1dz2              1.654000       3.970513

                         10       1    1dx2              0.469000       0.437484
                         10       1    1dxy              0.469000       0.757744
                         10       1    1dxz              0.469000       0.757744
                         10       1    1dy2              0.469000       0.437484
                         10       1    1dyz              0.469000       0.757744
                         10       1    1dz2              0.469000       0.437484

                         11       1    1fx3              1.093000       1.798249
                         11       1    1fx2y             1.093000       4.021007
                         11       1    1fx2z             1.093000       4.021007
                         11       1    1fxy2             1.093000       4.021007
                         11       1    1fxyz             1.093000       6.964588
                         11       1    1fxz2             1.093000       4.021007
                         11       1    1fy3              1.093000       1.798249
                         11       1    1fy2z             1.093000       4.021007
                         11       1    1fyz2             1.093000       4.021007
                         11       1    1fz3              1.093000       1.798249

     AE Potential information for                                            ALL

       Description:                                       All-electron potential
                                          Krack, Parrinello, PCCP 2, 2105 (2000)

       Gaussian exponent of the core charge distribution:               5.979100
       Electronic configuration (s p d ...):                           4   3   0

  2. Atomic kind: c                                     Number of atoms:       4

     Orbital Basis Set                                        Ahlrichs-def2-TZVP

       Number of orbital shell sets:                                          11
       Number of orbital shells:                                              11
       Number of primitive Cartesian functions:                               20
       Number of Cartesian basis functions:                                   36
       Number of spherical basis functions:                                   31
       Norm type:                                                              2

       Normalised Cartesian orbitals:

                        Set   Shell   Orbital            Exponent    Coefficient

                          1       1    1s            13575.349682       0.543591
                                                      2035.233368       1.014554
                                                       463.225624       1.731573
                                                       131.200196       2.691038
                                                        42.853016       3.604455
                                                        15.584186       3.702556

                          2       1    1s                6.206714       1.838354
                                                         2.576490       0.544758

                          3       1    1s                0.576963       0.471815

                          4       1    1s                0.229728       0.236494

                          5       1    1s                0.095164       0.122114

                          6       1    1px              34.697232       1.359665
                                                         7.958262       1.451259
                                                         2.378083       1.270923
                                                         0.814332       0.802572
                          6       1    1py              34.697232       1.359665
                                                         7.958262       1.451259
                                                         2.378083       1.270923
                                                         0.814332       0.802572
                          6       1    1pz              34.697232       1.359665
                                                         7.958262       1.451259
                                                         2.378083       1.270923
                                                         0.814332       0.802572

                          7       1    1px               0.288875       0.301876
                          7       1    1py               0.288875       0.301876
                          7       1    1pz               0.288875       0.301876

                          8       1    1px               0.100568       0.080727
                          8       1    1py               0.100568       0.080727
                          8       1    1pz               0.100568       0.080727

                          9       1    1dx2              1.097000       1.935401
                          9       1    1dxy              1.097000       3.352214
                          9       1    1dxz              1.097000       3.352214
                          9       1    1dy2              1.097000       1.935401
                          9       1    1dyz              1.097000       3.352214
                          9       1    1dz2              1.097000       1.935401

                         10       1    1dx2              0.318000       0.221644
                         10       1    1dxy              0.318000       0.383899
                         10       1    1dxz              0.318000       0.383899
                         10       1    1dy2              0.318000       0.221644
                         10       1    1dyz              0.318000       0.383899
                         10       1    1dz2              0.318000       0.221644

                         11       1    1fx3              0.761000       0.796288
                         11       1    1fx2y             0.761000       1.780553
                         11       1    1fx2z             0.761000       1.780553
                         11       1    1fxy2             0.761000       1.780553
                         11       1    1fxyz             0.761000       3.084008
                         11       1    1fxz2             0.761000       1.780553
                         11       1    1fy3              0.761000       0.796288
                         11       1    1fy2z             0.761000       1.780553
                         11       1    1fyz2             0.761000       1.780553
                         11       1    1fz3              0.761000       0.796288

       Atomic covalent radius [Angstrom]:                                  0.770

       Atomic van der Waals radius [Angstrom]:                             1.700

     The atoms of this atomic kind are PAW atoms (GAPW):
       Hard Gaussian function radius:                                      1.520
       Rho0 radius:                                                        1.520
       Maximum GTO radius used for PAW projector construction:            24.566

     GAPW Soft Basis Set                                 Ahlrichs-def2-TZVP_soft

       Number of orbital shell sets:                                          11
       Number of orbital shells:                                              11
       Number of primitive Cartesian functions:                               11
       Number of Cartesian basis functions:                                   36
       Number of spherical basis functions:                                   31
       Norm type:                                                              2

       Normalised Cartesian orbitals:

                        Set   Shell   Orbital            Exponent    Coefficient

                          1       1    1s         

                          2       1    1s                2.576490       0.544758

                          3       1    1s                0.576963       0.471815

                          4       1    1s                0.229728       0.236494

                          5       1    1s                0.095164       0.122114

                          6       1    1px               2.378083       1.270923
                                                         0.814332       0.802572
                          6       1    1py               2.378083       1.270923
                                                         0.814332       0.802572
                          6       1    1pz               2.378083       1.270923
                                                         0.814332       0.802572

                          7       1    1px               0.288875       0.301876
                          7       1    1py               0.288875       0.301876
                          7       1    1pz               0.288875       0.301876

                          8       1    1px               0.100568       0.080727
                          8       1    1py               0.100568       0.080727
                          8       1    1pz               0.100568       0.080727

                          9       1    1dx2              1.097000       1.935401
                          9       1    1dxy              1.097000       3.352214
                          9       1    1dxz              1.097000       3.352214
                          9       1    1dy2              1.097000       1.935401
                          9       1    1dyz              1.097000       3.352214
                          9       1    1dz2              1.097000       1.935401

                         10       1    1dx2              0.318000       0.221644
                         10       1    1dxy              0.318000       0.383899
                         10       1    1dxz              0.318000       0.383899
                         10       1    1dy2              0.318000       0.221644
                         10       1    1dyz              0.318000       0.383899
                         10       1    1dz2              0.318000       0.221644

                         11       1    1fx3              0.761000       0.796288
                         11       1    1fx2y             0.761000       1.780553
                         11       1    1fx2z             0.761000       1.780553
                         11       1    1fxy2             0.761000       1.780553
                         11       1    1fxyz             0.761000       3.084008
                         11       1    1fxz2             0.761000       1.780553
                         11       1    1fy3              0.761000       0.796288
                         11       1    1fy2z             0.761000       1.780553
                         11       1    1fyz2             0.761000       1.780553
                         11       1    1fz3              0.761000       0.796288

     AE Potential information for                                            ALL

       Description:                                       All-electron potential
                                          Krack, Parrinello, PCCP 2, 2105 (2000)

       Gaussian exponent of the core charge distribution:               4.109048
       Electronic configuration (s p d ...):                           4   2   0

  3. Atomic kind: h                                     Number of atoms:       4

     Orbital Basis Set                                        Ahlrichs-def2-TZVP

       Number of orbital shell sets:                                           4
       Number of orbital shells:                                               4
       Number of primitive Cartesian functions:                                6
       Number of Cartesian basis functions:                                    6
       Number of spherical basis functions:                                    6
       Norm type:                                                              2

       Normalised Cartesian orbitals:

                        Set   Shell   Orbital            Exponent    Coefficient

                          1       1    1s               34.061341       0.255630
                                                         5.123575       0.461360
                                                         1.164663       0.681121

                          2       1    1s                0.327230       0.308355

                          3       1    1s                0.103072       0.129648

                          4       1    1px               0.800000       1.078456
                          4       1    1py               0.800000       1.078456
                          4       1    1pz               0.800000       1.078456

       Atomic covalent radius [Angstrom]:                                  0.320

       Atomic van der Waals radius [Angstrom]:                             1.090

     The atoms of this atomic kind are PAW atoms (GAPW):
       Hard Gaussian function radius:                                      1.000
       Rho0 radius:                                                        1.000
       Maximum GTO radius used for PAW projector construction:            24.566

     GAPW Soft Basis Set                                 Ahlrichs-def2-TZVP_soft

       Number of orbital shell sets:                                           4
       Number of orbital shells:                                               4
       Number of primitive Cartesian functions:                                5
       Number of Cartesian basis functions:                                    6
       Number of spherical basis functions:                                    6
       Norm type:                                                              2

       Normalised Cartesian orbitals:

                        Set   Shell   Orbital            Exponent    Coefficient

                          1       1    1s                5.123575       0.461360
                                                         1.164663       0.681121

                          2       1    1s                0.327230       0.308355

                          3       1    1s                0.103072       0.129648

                          4       1    1px               0.800000       1.078456
                          4       1    1py               0.800000       1.078456
                          4       1    1pz               0.800000       1.078456

     AE Potential information for                                            ALL

       Description:                                       All-electron potential
                                          Krack, Parrinello, PCCP 2, 2105 (2000)

       Gaussian exponent of the core charge distribution:              12.500000
       Electronic configuration (s p d ...):                           1   0   0


 MOLECULE KIND INFORMATION


 All atoms are their own molecule, skipping detailed information


 TOTAL NUMBERS AND MAXIMUM NUMBERS

  Total number of            - Atomic kinds:                                   3
                             - Atoms:                                         10
                             - Shell sets:                                    82
                             - Shells:                                        82
                             - Primitive Cartesian functions:                144
                             - Cartesian basis functions:                    240
                             - Spherical basis functions:                    210

  Maximum angular momentum of the orbital basis functions:                     3


 MODULE QUICKSTEP: ATOMIC COORDINATES IN ANGSTROM

   Atom Kind Element         X             Y             Z       Z(eff)     Mass
      1    1 n     7      6.904770      8.072651      7.736480   7.0000  14.0067
      2    1 n     7      6.684125      5.878632      6.309140   7.0000  14.0067
      3    2 c     6      6.745889      6.963843      8.505666   6.0000  12.0107
      4    2 c     6      6.819593      5.907376      7.603790   6.0000  12.0107
      5    2 c     6      6.738915      8.124511      6.382443   6.0000  12.0107
      6    2 c     6      6.690841      6.949092      5.527190   6.0000  12.0107
      7    3 h     1      6.722597      6.897498      9.517043   1.0000   1.0079
      8    3 h     1      7.381176      4.922595      8.239828   1.0000   1.0079
      9    3 h     1      6.618824      9.077405      6.038639   1.0000   1.0079
     10    3 h     1      6.710013      7.010244      4.482957   1.0000   1.0079



 SCF PARAMETERS         Density guess:                                   RESTART
                        --------------------------------------------------------
                        max_scf:                                              50
                        max_scf_history:                                       0
                        max_diis:                                              4
                        --------------------------------------------------------
                        eps_scf:                                        1.00E-08
                        eps_scf_history:                                0.00E+00
                        eps_diis:                                       1.00E-01
                        eps_eigval:                                     1.00E-05
                        --------------------------------------------------------
                        level_shift [a.u.]:                             0.000000
                        --------------------------------------------------------
                        Outer loop SCF in use 
                        No variables optimised in outer loop
                        eps_scf                                         1.00E-08
                        max_scf                                              900
                        No outer loop optimization
                        step_size                                       5.00E-01

 PW_GRID| Information for grid number                                          1
 PW_GRID| Grid distributed over                                    16 processors
 PW_GRID| Real space group dimensions                                    16    1
 PW_GRID| the grid is blocked:                                                NO
 PW_GRID| Cutoff [a.u.]                                                    400.0
 PW_GRID| spherical cutoff:                                                   NO
 PW_GRID|   Bounds   1           -120     119                Points:         240
 PW_GRID|   Bounds   2           -120     119                Points:         240
 PW_GRID|   Bounds   3           -120     119                Points:         240
 PW_GRID| Volume element (a.u.^3)  0.1340E-02     Volume (a.u.^3)     18517.4301
 PW_GRID| Grid span                                                    FULLSPACE
 PW_GRID|   Distribution                         Average         Max         Min
 PW_GRID|   G-Vectors                           864000.0      864000      864000
 PW_GRID|   G-Rays                                3600.0        3600        3600
 PW_GRID|   Real Space Points                   864000.0      864000      864000

 PW_GRID| Information for grid number                                          2
 PW_GRID| Number of the reference grid                                         1
 PW_GRID| Grid distributed over                                    16 processors
 PW_GRID| Real space group dimensions                                    16    1
 PW_GRID| the grid is blocked:                                                NO
 PW_GRID| Cutoff [a.u.]                                                    200.0
 PW_GRID| spherical cutoff:                                                   NO
 PW_GRID|   Bounds   1            -90      89                Points:         180
 PW_GRID|   Bounds   2            -90      89                Points:         180
 PW_GRID|   Bounds   3            -90      89                Points:         180
 PW_GRID| Volume element (a.u.^3)  0.3175E-02     Volume (a.u.^3)     18517.4301
 PW_GRID| Grid span                                                    FULLSPACE
 PW_GRID|   Distribution                         Average         Max         Min
 PW_GRID|   G-Vectors                           364500.0      364680      364320
 PW_GRID|   G-Rays                                2025.0        2026        2024
 PW_GRID|   Real Space Points                   364500.0      388800      356400

 PW_GRID| Information for grid number                                          3
 PW_GRID| Number of the reference grid                                         2
 PW_GRID| Grid distributed over                                    16 processors
 PW_GRID| Real space group dimensions                                    16    1
 PW_GRID| the grid is blocked:                                                NO
 PW_GRID| Cutoff [a.u.]                                                     66.7
 PW_GRID| spherical cutoff:                                                   NO
 PW_GRID|   Bounds   1            -50      49                Points:         100
 PW_GRID|   Bounds   2            -50      49                Points:         100
 PW_GRID|   Bounds   3            -50      49                Points:         100
 PW_GRID| Volume element (a.u.^3)  0.1852E-01     Volume (a.u.^3)     18517.4301
 PW_GRID| Grid span                                                    FULLSPACE
 PW_GRID|   Distribution                         Average         Max         Min
 PW_GRID|   G-Vectors                            62500.0       62600       62400
 PW_GRID|   G-Rays                                 625.0         626         624
 PW_GRID|   Real Space Points                    62500.0       70000       60000

 PW_GRID| Information for grid number                                          4
 PW_GRID| Number of the reference grid                                         2
 PW_GRID| Grid distributed over                                    16 processors
 PW_GRID| Real space group dimensions                                    16    1
 PW_GRID| the grid is blocked:                                                NO
 PW_GRID| Cutoff [a.u.]                                                     22.2
 PW_GRID| spherical cutoff:                                                   NO
 PW_GRID|   Bounds   1            -30      29                Points:          60
 PW_GRID|   Bounds   2            -30      29                Points:          60
 PW_GRID|   Bounds   3            -30      29                Points:          60
 PW_GRID| Volume element (a.u.^3)  0.8573E-01     Volume (a.u.^3)     18517.4301
 PW_GRID| Grid span                                                    FULLSPACE
 PW_GRID|   Distribution                         Average         Max         Min
 PW_GRID|   G-Vectors                            13500.0       13560       13440
 PW_GRID|   G-Rays                                 225.0         226         224
 PW_GRID|   Real Space Points                    13500.0       14400       10800

 PW_GRID| Information for grid number                                          5
 PW_GRID| Number of the reference grid                                         2
 PW_GRID| Grid distributed over                                    16 processors
 PW_GRID| Real space group dimensions                                    16    1
 PW_GRID| the grid is blocked:                                                NO
 PW_GRID| Cutoff [a.u.]                                                      7.4
 PW_GRID| spherical cutoff:                                                   NO
 PW_GRID|   Bounds   1            -18      17                Points:          36
 PW_GRID|   Bounds   2            -18      17                Points:          36
 PW_GRID|   Bounds   3            -18      17                Points:          36
 PW_GRID| Volume element (a.u.^3)  0.3969         Volume (a.u.^3)     18517.4301
 PW_GRID| Grid span                                                    FULLSPACE
 PW_GRID|   Distribution                         Average         Max         Min
 PW_GRID|   G-Vectors                             2916.0        2952        2880
 PW_GRID|   G-Rays                                  81.0          82          80
 PW_GRID|   Real Space Points                     2916.0        3888        2592

 POISSON| Solver                                          Martyna-Tuckerman (MT)
 POISSON| MT| Alpha                                                        7.000
 POISSON| MT| Relative cutoff                                                2.0
 POISSON| Periodicity                                                       NONE

 RS_GRID| Information for grid number                                          2
 RS_GRID|   Bounds   1            -90      89                Points:         180
 RS_GRID|   Bounds   2            -90      89                Points:         180
 RS_GRID|   Bounds   3            -90      89                Points:         180
 RS_GRID| Real space distribution over                                  4 groups
 RS_GRID| Real space distribution along direction                              2
 RS_GRID| Border size                                                         31
 RS_GRID| Real space distribution over                                  4 groups
 RS_GRID| Real space distribution along direction                              3
 RS_GRID| Border size                                                         31
 RS_GRID|   Distribution                         Average         Max         Min
 RS_GRID|   Planes                                 107.0         107         107
 RS_GRID|   Distribution                         Average         Max         Min
 RS_GRID|   Planes                                 107.0         107         107

 RS_GRID| Information for grid number                                          3
 RS_GRID|   Bounds   1            -50      49                Points:         100
 RS_GRID|   Bounds   2            -50      49                Points:         100
 RS_GRID|   Bounds   3            -50      49                Points:         100
 RS_GRID| Real space fully replicated
 RS_GRID| Group size                                                           1

 RS_GRID| Information for grid number                                          4
 RS_GRID|   Bounds   1            -30      29                Points:          60
 RS_GRID|   Bounds   2            -30      29                Points:          60
 RS_GRID|   Bounds   3            -30      29                Points:          60
 RS_GRID| Real space fully replicated
 RS_GRID| Group size                                                           1

 RS_GRID| Information for grid number                                          5
 RS_GRID|   Bounds   1            -18      17                Points:          36
 RS_GRID|   Bounds   2            -18      17                Points:          36
 RS_GRID|   Bounds   3            -18      17                Points:          36
 RS_GRID| Real space fully replicated
 RS_GRID| Group size                                                           1

  HFX_INFO| Replica ID:                                                        1
  HFX_INFO| FRACTION:                                               0.2000000000
  HFX_INFO| Interaction Potential:                                       COULOMB
  HFX_INFO| EPS_SCHWARZ:                                                 1.0E-10
  HFX_INFO| EPS_SCHWARZ_FORCES                                           1.0E-08
  HFX_INFO| EPS_STORAGE_SCALING:                                         1.0E+00
  HFX_INFO| NBINS:                                                            64
  HFX_INFO| BLOCK_SIZE:                                                        1
  HFX_INFO| Number of periodic shells considered:                           NONE
  HFX_INFO| Number of periodic cells considered:                            NONE


 Number of electrons:                                                         42
 Number of occupied orbitals:                                                 21
 Number of molecular orbitals:                                                21

 Number of orbital functions:                                                210
 Number of independent orbital functions:                                    210

 Extrapolation method: initial_guess


 SCF WAVEFUNCTION OPTIMIZATION

  ----------------------------------- OT ---------------------------------------
  Minimizer      : DIIS                : direct inversion
                                         in the iterative subspace
                                         using   7 DIIS vectors
                                         safer DIIS on
  Preconditioner : FULL_ALL            : diagonalization, state selective
  Precond_solver : DEFAULT
  stepsize       :    0.15000000                  energy_gap     :    0.08000000
  eps_taylor     :   0.10000E-15                  max_taylor     :             4
  ----------------------------------- OT ---------------------------------------

  Step     Update method      Time    Convergence         Total energy    Change
  ------------------------------------------------------------------------------

  HFX_MEM_INFO| Est. max. program size before HFX [MiB]:                     637
  HFX_MEM_INFO| Number of cart. primitive ERI's calculated:           1718278534
  HFX_MEM_INFO| Number of sph. ERI's calculated:                       315796319
  HFX_MEM_INFO| Number of sph. ERI's stored in-core:                   315796319
  HFX_MEM_INFO| Number of sph. ERI's stored on disk:                           0
  HFX_MEM_INFO| Number of sph. ERI's calculated on the fly:                    0
  HFX_MEM_INFO| Total memory consumption ERI's RAM [MiB]:                    940
  HFX_MEM_INFO| Whereof max-vals [MiB]:                                        5
  HFX_MEM_INFO| Total compression factor ERI's RAM:                         2.57
  HFX_MEM_INFO| Total memory consumption ERI's disk [MiB]:                     0
  HFX_MEM_INFO| Total compression factor ERI's disk:                        0.00
  HFX_MEM_INFO| Size of density/Fock matrix [MiB]:                             0
  HFX_MEM_INFO| Size of buffers [MiB]:                                         0
  HFX_MEM_INFO| Est. max. program size after HFX  [MiB]:                     696

     1 OT DIIS     0.15E+00    5.8     0.01143851      -264.0971346968 -2.64E+02
     2 OT DIIS     0.15E+00    1.0     0.00525847      -264.1580065870 -6.09E-02
     3 OT DIIS     0.15E+00    1.0     0.00264254      -264.1721490582 -1.41E-02
     4 OT DIIS     0.15E+00    1.0     0.00054900      -264.1737816129 -1.63E-03
     5 OT DIIS     0.15E+00    1.0     0.00022138      -264.1738466840 -6.51E-05
     6 OT DIIS     0.15E+00    1.0     0.00006872      -264.1738666079 -1.99E-05
     7 OT DIIS     0.15E+00    1.0     0.00002991      -264.1738688618 -2.25E-06
     8 OT DIIS     0.15E+00    1.0     0.00000840      -264.1738692323 -3.70E-07
     9 OT DIIS     0.15E+00    1.0     0.00000298      -264.1738692666 -3.43E-08
    10 OT DIIS     0.15E+00    1.0     0.00000102      -264.1738692710 -4.37E-09
    11 OT DIIS     0.15E+00    1.0     0.00000048      -264.1738692714 -4.20E-10
    12 OT DIIS     0.15E+00    1.0     0.00000017      -264.1738692715 -6.07E-11
    13 OT DIIS     0.15E+00    1.0     0.00000009      -264.1738692715  5.00E-12
    14 OT DIIS     0.15E+00    1.0     0.00000003      -264.1738692715  7.11E-12
    15 OT DIIS     0.15E+00    1.0     0.00000001      -264.1738692715 -4.55E-13
    16 OT DIIS     0.15E+00    1.0     4.5931E-09      -264.1738692715  8.70E-12

  *** SCF run converged in    16 steps ***


  Electronic density on regular grids:        -30.6458389708       11.3541610292
  Core density on regular grids:               42.0000000000       -0.0000000000
  Hard and soft densities (Lebedev):          -97.2350519100      -85.8808908753
  Total Rho_soft + Rho1_hard - Rho1_soft      -42.0000000055
  Total charge density (r-space):              -0.0000000055
  Total Rho_soft + Rho0_soft (g-space):        -0.0000000312

  Overlap energy of the core charge distribution:               0.00001731131625
  Self energy of the core charge distribution:               -217.69203579805162
  Core Hamiltonian energy:                                    -41.85249467839003
  Hartree energy:                                             109.74753646131606
  Exchange-correlation energy:                                -11.21367930294685
  Hartree-Fock Exchange energy:                                -7.05637992379076
  Dispersion energy:                                           -0.00386199604781

  GAPW| Exc from hard and soft atomic rho1:                   -18.55313889863748
  GAPW| local Eh = 1 center integrals:                        -77.54983244621894

  Total energy:                                              -264.17386927145117

  outer SCF iter =    1 RMS gradient =   0.46E-08 energy =       -264.1738692715
  outer SCF loop converged in   1 iterations or   16 steps


 !-----------------------------------------------------------------------------!
                     Mulliken Population Analysis

 #  Atom  Element  Kind  Atomic population                           Net charge
       1     n        1          7.224200                             -0.224200
       2     n        1          7.197818                             -0.197818
       3     c        2          5.987982                              0.012018
       4     c        2          6.008213                             -0.008213
       5     c        2          6.049986                             -0.049986
       6     c        2          6.008384                             -0.008384
       7     h        3          0.857078                              0.142922
       8     h        3          0.939993                              0.060007
       9     h        3          0.869650                              0.130350
      10     h        3          0.856696                              0.143304
 # Total charge                             42.000000                  0.000000

 !-----------------------------------------------------------------------------!

 !-----------------------------------------------------------------------------!
                           Hirshfeld Charges

  #Atom  Element  Kind  Ref Charge     Population                    Net charge
      1       n      1       7.000          7.308                        -0.308
      2       n      1       7.000          7.281                        -0.281
      3       c      2       6.000          6.320                        -0.320
      4       c      2       6.000          6.345                        -0.345
      5       c      2       6.000          6.360                        -0.360
      6       c      2       6.000          6.314                        -0.314
      7       h      3       1.000          0.502                         0.498
      8       h      3       1.000          0.543                         0.457
      9       h      3       1.000          0.514                         0.486
     10       h      3       1.000          0.501                         0.499

  Total Charge                                                            0.013
 !-----------------------------------------------------------------------------!

 *******************************************************************************
 **                                                                           **
 **         ######## #######   #######   ######## #######  ########           **
 **            ##    ##     ## ##     ## ##       ##   ##     ##              **
 **            ##    ##     ## ##     ## ######   #######     ##              **
 **            ##    ##     ## ##     ## ##       ##          ##              **
 **            ##    #######   #######   ##       ##          ##              **
 **                                                                           **
 *******************************************************************************
 KERNEL|                                                                    FULL
 FUNCTIONAL| BECKE88:
 FUNCTIONAL| A. Becke, Phys. Rev. A 38, 3098 (1988) {LDA version}               
 FUNCTIONAL| LYP:
 FUNCTIONAL| C. Lee, W. Yang, R.G. Parr, Phys. Rev. B, 37, 785 (1988) {LDA versi
 FUNCTIONAL| on}                                                                
 FUNCTIONAL| VWN:
 FUNCTIONAL| S. H. Vosko, L. Wilk and M. Nusair, Can. J. Phys. 58, 1200 (1980) {
 FUNCTIONAL| LDA version}                                                       
 FUNCTIONAL| XALPHA:
 FUNCTIONAL| Dirac/Slater local exchange; parameter=  0.666 {LDA}               
 KERNEL|                                                          Exact Exchange
 KERNEL| Spin symmetry of excitations                                    Singlet
 TDDFPT| Number of states calculated                                           9
 TDDFPT| Number of Davidson iterations                                       100
 TDDFPT| Davidson iteration convergence                                0.367E-09
 TDDFPT| Max. number of Krylov space vectors                                5000
 TDDFPT| Molecular Orbitals:        Spin       AOs       Occ      Virt     Total
 TDDFPT|                               1       210        21       189       210
 
 -------------------------------------------------------------------------------
 -                            TDDFPT Initial Guess                             -
 -------------------------------------------------------------------------------
          State         Occupied      ->      Virtual          Excitation
          number         orbital              orbital          energy (eV)
 -------------------------------------------------------------------------------
             1               21                   22              4.24288
             2               21                   23              4.73508
             3               20                   22              5.90262
             4               19                   22              6.23155
             5               20                   23              6.39483
             6               19                   23              6.72375
             7               21                   24              7.07434
             8               18                   22              7.41263
             9               18                   23              7.90484

      Number of active states:                                       3969
 -------------------------------------------------------------------------------
 
 -------------------------------------------------------------------------------
 -                      TDDFPT WAVEFUNCTION OPTIMIZATION                       -
 -------------------------------------------------------------------------------

          Step            Time         Convergence           Conv. states
 -------------------------------------------------------------------------------

    State    Exc. energy (eV)      Convergence (eV)
        1       3.0941057            -1.1488E+00
        2       3.5519553            -1.1831E+00
        3       4.8831048            -1.0195E+00
        4       5.3494016            -8.8215E-01
        5       5.6194427            -7.7538E-01
        6       6.4139702            -3.0978E-01
        7       7.2389512             1.6462E-01
        8       9.5726442             2.1600E+00
        9      10.1285023             2.2237E+00

             1            10.5          8.1718E-02                      0

    State    Exc. energy (eV)      Convergence (eV)
        1       3.0142413            -7.9864E-02
        2       3.4705593            -8.1396E-02
        3       4.8033174            -7.9787E-02
        4       5.2636573            -8.5744E-02
        5       5.4631946            -1.5625E-01
        6       6.1760311            -2.3794E-01
        7       6.3418231            -8.9713E-01
        8       7.9475388            -1.6251E+00
        9       8.6220610            -1.5064E+00

             2            10.5          5.9722E-02                      0

    State    Exc. energy (eV)      Convergence (eV)
        1       3.0096188            -4.6225E-03
        2       3.4658876            -4.6717E-03
        3       4.7978824            -5.4350E-03
        4       5.2597907            -3.8665E-03
        5       5.4564587            -6.7359E-03
        6       6.1537347            -2.2296E-02
        7       6.3246818            -1.7141E-02
        8       7.0852898            -8.6225E-01
        9       7.5482920            -1.0738E+00

             3            10.5          3.9460E-02                      0

    State    Exc. energy (eV)      Convergence (eV)
        1       3.0094736            -1.4517E-04
        2       3.4657682            -1.1937E-04
        3       4.7977513            -1.3116E-04
        4       5.2595576            -2.3319E-04
        5       5.4559276            -5.3105E-04
        6       6.1504046            -3.3301E-03
        7       6.3229608            -1.7210E-03
        8       7.0302395            -5.5050E-02
        9       7.1917875            -3.5650E-01

             4            10.5          1.3101E-02                      0

    State    Exc. energy (eV)      Convergence (eV)
        1       3.0094722            -1.4479E-06
        2       3.4657662            -2.0162E-06
        3       4.7977473            -3.9874E-06
        4       5.2595458            -1.1768E-05
        5       5.4558992            -2.8465E-05
        6       6.1502193            -1.8532E-04
        7       6.3228352            -1.2564E-04
        8       6.9985447            -3.1695E-02
        9       7.1005044            -9.1283E-02

             5            10.5          3.3546E-03                      0

    State    Exc. energy (eV)      Convergence (eV)
        1       3.0094722            -1.4112E-08
        2       3.4657662            -1.7113E-08
        3       4.7977472            -5.1652E-08
        4       5.2595456            -1.6904E-07
        5       5.4558986            -5.5080E-07
        6       6.1502151            -4.2135E-06
        7       6.3228299            -5.2729E-06
        8       6.9960084            -2.5363E-03
        9       7.0975315            -2.9729E-03

             6            10.5          1.0925E-04                      0

    State    Exc. energy (eV)      Convergence (eV)
        1       3.0094722            -1.1244E-10
        2       3.4657662            -1.5788E-10
        3       4.7977472            -6.5446E-10
        4       5.2595456            -1.9836E-09
        5       5.4558986            -9.0572E-09
        6       6.1502150            -1.0589E-07
        7       6.3228298            -1.2710E-07
        8       6.9958781            -1.3029E-04
        9       7.0972855            -2.4606E-04

             7            10.5          9.0425E-06                      5

    State    Exc. energy (eV)      Convergence (eV)
        1       3.0094722            -5.6721E-13
        2       3.4657662            -1.3315E-12
        3       4.7977472            -5.9613E-12
        4       5.2595456            -1.5975E-11
        5       5.4558986            -9.6432E-11
        6       6.1502150            -2.5706E-09
        7       6.3228298            -2.1763E-09
        8       6.9958697            -8.4131E-06
        9       7.0972642            -2.1299E-05

             8            10.5          7.8271E-07                      7

    State    Exc. energy (eV)      Convergence (eV)
        1       3.0094722            -4.5316E-15
        2       3.4657662            -4.5316E-15
        3       4.7977472            -6.6464E-14
        4       5.2595456            -1.1858E-13
        5       5.4558986            -1.0143E-12
        6       6.1502150            -4.0569E-11
        7       6.3228298            -2.7912E-11
        8       6.9958694            -3.0147E-07
        9       7.0972633            -8.5019E-07

             9            10.5          3.1244E-08                      7

    State    Exc. energy (eV)      Convergence (eV)
        1       3.0094722             1.6238E-14
        2       3.4657662             1.5861E-14
        3       4.7977472             4.5316E-15
        4       5.2595456             3.7763E-15
        5       5.4558986            -7.5527E-15
        6       6.1502150            -4.5467E-13
        7       6.3228298            -2.9606E-13
        8       6.9958694            -7.0431E-09
        9       7.0972633            -2.3525E-08

            10            10.5          8.6454E-10                      8

    State    Exc. energy (eV)      Convergence (eV)
        1       3.0094722             3.7763E-16
        2       3.4657662            -3.7763E-15
        3       4.7977472             1.5105E-15
        4       5.2595456             6.0421E-15
        5       5.4558986             6.0421E-15
        6       6.1502150            -9.0632E-15
        7       6.3228298             6.0421E-15
        8       6.9958694            -9.1708E-11
        9       7.0972633            -3.6628E-10

            11            10.5          1.3461E-11                      9
 ------------------------- Restart Davidson iterations -------------------------

    State    Exc. energy (eV)      Convergence (eV)
        1       3.0094722            -8.6856E-15
        2       3.4657662            -8.3079E-15
        3       4.7977472            -4.5316E-15
        4       5.2595456            -3.7763E-15
        5       5.4558986            -3.0211E-15
        6       6.1502150             7.5527E-16
        7       6.3228298            -4.5316E-15
        8       6.9958694            -2.8700E-14
        9       7.0972633            -3.0211E-14

            12            10.5          1.1102E-15                      9
 
 -------------------------------------------------------------------------------
 -  TDDFPT run converged in 12 iteration(s) 
 -------------------------------------------------------------------------------

 R-TDDFPT states of multiplicity 1
 Transition dipoles calculated using length formulation

         State    Excitation        Transition dipole (a.u.)        Oscillator
         number   energy (eV)       x           y           z     strength (a.u.)
         ------------------------------------------------------------------------
 TDDFPT|      1       3.00947   1.2634E-01 -1.0578E-01 -2.6662E-01   7.24324E-03
 TDDFPT|      2       3.46577  -1.6911E-01 -1.4455E-01  6.7978E-02   4.59501E-03
 TDDFPT|      3       4.79775   1.4312E-02  1.5844E-02 -1.3659E-01   2.24641E-03
 TDDFPT|      4       5.25955  -3.1443E-02  1.7402E-01 -3.9829E-01   2.44706E-02
 TDDFPT|      5       5.45590   4.1840E-02  3.0529E-02  6.3921E-01   5.49734E-02
 TDDFPT|      6       6.15021  -1.6647E-01 -2.1548E-02 -4.4235E-01   3.37293E-02
 TDDFPT|      7       6.32283  -1.0328E-01  9.6248E-01  7.1733E-02   1.45951E-01
 TDDFPT|      8       6.99587   1.8863E-02 -3.3823E-01  4.2705E-01   5.09260E-02
 TDDFPT|      9       7.09726  -1.2518E-02 -5.2648E-02  1.5610E-01   4.74642E-03

 TDDFPT : CheckSum  =  0.613431E+00
 
 -------------------------------------------------------------------------------
 -                            Excitation analysis                              -
 -------------------------------------------------------------------------------
        State             Occupied              Virtual             Excitation
        number             orbital              orbital             amplitude
 -------------------------------------------------------------------------------
             1   3.00947 eV
                                21                   22              -0.980892
                                20                   22              -0.146115
                                18                   23               0.060533
                                21                   23               0.052535
             2   3.46577 eV
                                21                   23               0.979883
                                20                   23               0.164981
                                21                   22               0.052611
             3   4.79775 eV
                                19                   22               0.879315
                                20                   22               0.447962
                                21                   24              -0.077040
                                18                   22              -0.065585
                                21                   26               0.053365
             4   5.25955 eV
                                19                   23               0.640981
                                20                   22               0.467969
                                20                   23               0.415790
                                19                   22              -0.322511
                                18                   22              -0.211832
                                18                   23               0.169741
                                21                   24              -0.065686
                                21                   22              -0.056860
             5   5.45590 eV
                                19                   23               0.663035
                                20                   22              -0.560710
                                18                   23              -0.367419
                                19                   22               0.267463
                                18                   22               0.102283
                                21                   22               0.075294
                                17                   22              -0.065861
             6   6.15021 eV
                                21                   24               0.800859
                                20                   23              -0.432270
                                19                   23               0.223605
                                21                   26              -0.191637
                                20                   22               0.183903
                                18                   23               0.092498
                                21                   23               0.087646
                                17                   24               0.065526
                                21                   25              -0.054854
             7   6.32283 eV
                                20                   23               0.645164
                                21                   24               0.517320
                                18                   22              -0.351057
                                19                   23              -0.259979
                                20                   22              -0.212553
                                19                   22               0.120884
                                21                   23              -0.110210
                                17                   22              -0.106950
                                17                   23               0.057786
             8   6.99587 eV
                                21                   26              -0.699854
                                21                   25              -0.638788
                                21                   24              -0.169568
                                18                   23              -0.152518
                                20                   24               0.128777
                                18                   22              -0.080272
                                17                   22               0.072224
                                21                   28              -0.058129
             9   7.09726 eV
                                21                   25              -0.742891
                                21                   26               0.608898
                                18                   22               0.186911
                                21                   24               0.112735
                                20                   24              -0.079973
                                21                   29              -0.073724
 -------------------------------------------------------------------------------
 
 -------------------------------------------------------------------------------
 -                            Natural Orbital analysis                         -
 -------------------------------------------------------------------------------
   STATE NR.      1             3.00947 eV
     Particle-Hole state: 1   Spin:1     Eigenvalue: 0.99032   Sum Eigv: 0.99032
   STATE NR.      2             3.46577 eV
     Particle-Hole state: 1   Spin:1     Eigenvalue: 0.99607   Sum Eigv: 0.99607
   STATE NR.      3             4.79775 eV
     Particle-Hole state: 1   Spin:1     Eigenvalue: 0.98440   Sum Eigv: 0.98440
   STATE NR.      4             5.25955 eV
     Particle-Hole state: 1   Spin:1     Eigenvalue: 0.62449   Sum Eigv: 0.62449
     Particle-Hole state: 2   Spin:1     Eigenvalue: 0.36569   Sum Eigv: 0.99018
   STATE NR.      5             5.45590 eV
     Particle-Hole state: 1   Spin:1     Eigenvalue: 0.63558   Sum Eigv: 0.63558
     Particle-Hole state: 2   Spin:1     Eigenvalue: 0.35211   Sum Eigv: 0.98769
   STATE NR.      6             6.15021 eV
     Particle-Hole state: 1   Spin:1     Eigenvalue: 0.70747   Sum Eigv: 0.70747
     Particle-Hole state: 2   Spin:1     Eigenvalue: 0.26807   Sum Eigv: 0.97555
   STATE NR.      7             6.32283 eV
     Particle-Hole state: 1   Spin:1     Eigenvalue: 0.60368   Sum Eigv: 0.60368
     Particle-Hole state: 2   Spin:1     Eigenvalue: 0.26793   Sum Eigv: 0.87161
     Particle-Hole state: 3   Spin:1     Eigenvalue: 0.11145   Sum Eigv: 0.98306
   STATE NR.      8             6.99587 eV
     Particle-Hole state: 1   Spin:1     Eigenvalue: 0.93372   Sum Eigv: 0.93372
     Particle-Hole state: 2   Spin:1     Eigenvalue: 0.03691   Sum Eigv: 0.97063
     Particle-Hole state: 3   Spin:1     Eigenvalue: 0.01978   Sum Eigv: 0.99041
   STATE NR.      9             7.09726 eV
     Particle-Hole state: 1   Spin:1     Eigenvalue: 0.94589   Sum Eigv: 0.94589
     Particle-Hole state: 2   Spin:1     Eigenvalue: 0.04050   Sum Eigv: 0.98640
 -------------------------------------------------------------------------------
 Ground state orbital alignment:         1.000000[MinVal]      1.000000[Average]
 Excitation vector alignment:                                           1.000000
[...]
 # MPI messages exchanged                  146784
 MPI messages size (bytes):
  total size                         1.144152E+09
  min size                           0.000000E+00
  max size                          31.744000E+03
  average size                       7.794797E+03
 MPI breakdown and total messages size (bytes):
             size <=      128               81042                        0
       128 < size <=     8192               11862                 81677232
      8192 < size <=    32768               53880               1062474336
     32768 < size <=   131072                   0                        0
    131072 < size <=  4194304                   0                        0
   4194304 < size <= 16777216                   0                        0
  16777216 < size                               0                        0
 -------------------------------------------------------------------------------
 -                                                                             -
 -                      DBCSR MESSAGE PASSING PERFORMANCE                      -
 -                                                                             -
 -------------------------------------------------------------------------------
 ROUTINE             CALLS      AVE VOLUME [Bytes]
 MP_Bcast               28                     12.
 MP_Allreduce         6501                      8.
 MP_Alltoall         26226                   2781.
 MP_ISend            24460                   3650.
 MP_IRecv            24460                   3369.
 -------------------------------------------------------------------------------

 -------------------------------------------------------------------------------
 -                                                                             -
 -                                DBM STATISTICS                               -
 -                                                                             -
 -------------------------------------------------------------------------------
    M  x    N  x    K                                          COUNT     PERCENT
 -------------------------------------------------------------------------------

 -------------------------------------------------------------------------------
 -                                                                             -
 -                                GRID STATISTICS                              -
 -                                                                             -
 -------------------------------------------------------------------------------
 LP    KERNEL             BACKEND                              COUNT     PERCENT
 1     collocate ortho    CPU                                 249636      15.60%
 2     collocate ortho    CPU                                 202989      12.69%
 1     integrate ortho    CPU                                 202244      12.64%
 0     collocate ortho    CPU                                 173595      10.85%
 2     integrate ortho    CPU                                 168527      10.53%
 3     collocate ortho    CPU                                 136959       8.56%
 0     integrate ortho    CPU                                 136105       8.51%
 3     integrate ortho    CPU                                 115005       7.19%
 4     collocate ortho    CPU                                  58788       3.67%
 4     integrate ortho    CPU                                  51236       3.20%
 4     collocate general  CPU                                  20640       1.29%
 5     collocate ortho    CPU                                  17892       1.12%
 5     integrate ortho    CPU                                  16236       1.01%
 4     integrate general  CPU                                  16032       1.00%
 2     collocate general  CPU                                  13760       0.86%
 2     integrate general  CPU                                  10688       0.67%
 6     collocate ortho    CPU                                   4473       0.28%
 6     integrate ortho    CPU                                   4179       0.26%
 5     integrate general  CPU                                    384       0.02%
 3     integrate general  CPU                                    256       0.02%
 7     integrate ortho    CPU                                    168       0.01%
 0     collocate general  CPU                                    160       0.01%
 0     integrate general  CPU                                    160       0.01%
 -------------------------------------------------------------------------------

 MEMORY| Estimated peak process memory [MiB]                                1276

 -------------------------------------------------------------------------------
 ----                             MULTIGRID INFO                            ----
 -------------------------------------------------------------------------------
 count for grid        1:         109550          cutoff [a.u.]          200.00
 count for grid        2:          22505          cutoff [a.u.]           66.67
 count for grid        3:           8627          cutoff [a.u.]           22.22
 count for grid        4:           1858          cutoff [a.u.]            7.41
 total gridlevel count  :         142540

 -------------------------------------------------------------------------------
 -                                                                             -
 -                         MESSAGE PASSING PERFORMANCE                         -
 -                                                                             -
 -------------------------------------------------------------------------------

 ROUTINE             CALLS      AVE VOLUME [Bytes]
 MP_Group                5
 MP_Bcast             4887                 961785.
 MP_Allreduce        15355                 141041.
 MP_Sync              1467
 MP_Alltoall          4256               15013888.
 MP_SendRecv          9645                 233971.
 MP_ISendRecv        16410                 124820.
 MP_Wait             34432
 MP_comm_split          49
 MP_ISend            15527                 822508.
 MP_IRecv            15696                 813314.
 -------------------------------------------------------------------------------


 -------------------------------------------------------------------------------
 -                                                                             -
 -                           R E F E R E N C E S                               -
 -                                                                             -
 -------------------------------------------------------------------------------
 
 CP2K version 2024.1 (Development Version), the CP2K developers group (2024).
 CP2K is freely available from https://www.cp2k.org/ .

 Kuehne,Thomas D.; Iannuzzi,Marcella; Del Ben,Mauro;
 Rybkin,Vladimir V.; Seewald,Patrick; Stein,Frederick; Laino,Teodoro;
 Khaliullin,Rustam Z.; Schuett,Ole; Schiffmann,Florian; Golze,Dorothea;
 Wilhelm,Jan; Chulkov,Sergey; Bani-Hashemian,Mohammad Hossein;
 Weber,Valery; Borstnik,Urban; Taillefumier,Mathieu;
 Jakobovits,Alice Shoshana; Lazzaro,Alfio; Pabst,Hans; Mueller,Tiziano;
 Schade,Robert; Guidon,Manuel; Andermatt,Samuel; Holmberg,Nico;
 Schenter,Gregory K.; Hehn,Anna; Bussy,Augustin; Belleflamme,Fabian;
 Tabacchi,Gloria; Gloess,Andreas; Lass,Michael; Bethune,Iain;
 Mundy,Christopher J.; Plessl,Christian; Watkins,Matt;
 VandeVondele,Joost; Krack,Matthias; Hutter,Juerg. 
 The Journal of Chemical Physics, 152 (19), (2020). 
 CP2K: An electronic structure and molecular dynamics software package -
 Quickstep: Efficient and accurate electronic structure calculations.
 https://doi.org/10.1063/5.0007045

 Goerigk, Lars; Hansen, Andreas; Bauer, Christoph; Ehrlich, Stephan;
 Najibi, Asim; Grimme, Stefan. , 19 (48), (2017). 
 A look at the density functional theory zoo with the advanced GMTKN55 database
 for general main group thermochemistry, kinetics and noncovalent interactions.
 https://doi.org/10.1039/C7CP04913G

 Schuett, Ole; Messmer, Peter; Hutter, Juerg; VandeVondele, Joost. 
 Electronic Structure Calculations on Graphics Processing Units, John
 Wiley & Sons, Ltd, 173-190 (2016). 
 GPU-Accelerated Sparse Matrix-Matrix Multiplication for
 Linear Scaling Density Functional Theory.
 https://doi.org/10.1002/9781118670712.ch8

 Heinecke, A; Henry, G; Hutchinson, M; Pabst, H. 
 Proceedings of Intl. Supercomputing Conference, 981-991 (2016). 
 LIBXSMM: Accelerating Small Matrix Multiplications
 by Runtime Code Generation.
 https://doi.org/10.1109/SC.2016.83

 Borstnik, U; VandeVondele, J; Weber, V; Hutter, J. 
 PARALLEL COMPUTING, 40 (5-6), 47-58 (2014). 
 Sparse matrix multiplication: The distributed block-compressed sparse
 row library.
 https://doi.org/10.1016/j.parco.2014.03.012

 Hutter, J; Iannuzzi, M; Schiffmann, F; VandeVondele, J. 
 WIREs Comput Mol Sci., 4 (1), 15-25 (2014). 
 CP2K: atomistic simulations of condensed matter systems.
 https://doi.org/10.1002/wcms.1159

 Grimme, S; Ehrlich, S; Goerigk, L. 
 JOURNAL OF COMPUTATIONAL CHEMISTRY, 32, 1456 (2011). 
 Effect of the damping function in dispersion corrected density functional theory.
 https://doi.org/10.1002/jcc.21759

 Grimme, S; Antony, J; Ehrlich, S; Krieg, H. 
 JOURNAL OF CHEMICAL PHYSICS, 132 (15), 154104 (2010). 
 A consistent and accurate ab initio parametrization of density
 functional dispersion correction (DFT-D) for the 94 elements H-Pu.
 https://doi.org/10.1063/1.3382344

 Guidon, M; Hutter, J; VandeVondele, J. 
 JOURNAL OF CHEMICAL THEORY AND COMPUTATION, 5 (11), 3010-3021 (2009). 
 Robust Periodic Hartree-Fock Exchange for Large-Scale Simulations Using
 Gaussian Basis Sets.
 https://doi.org/10.1021/ct900494g

 Guidon, M; Schiffmann, F; Hutter, J; VandeVondele, J. 
 JOURNAL OF CHEMICAL PHYSICS, 128 (21), 214104 (2008). 
 Ab initio molecular dynamics using hybrid density functionals.
 https://doi.org/10.1063/1.2931945

 VandeVondele, J; Hutter, J. 
 JOURNAL OF CHEMICAL PHYSICS, 127 (11), 114105 (2007). 
 Gaussian basis sets for accurate calculations on molecular systems in
 gas and condensed phases.
 https://doi.org/10.1063/1.2770708

 Frigo, M; Johnson, SG. 
 PROCEEDINGS OF THE IEEE, 93 (2), 216-231 (2005). 
 The design and implementation of FFTW3.
 https://doi.org/10.1109/JPROC.2004.840301

 Iannuzzi, M; Chassaing, T; Wallman, T; Hutter, J. 
 CHIMIA, 59 (7-8), 499-503 (2005). 
 Ground and excited state density functional calculations with the
 Gaussian and augmented-plane-wave method.
 https://doi.org/10.2533/000942905777676164

 VandeVondele, J; Hutter, J. 
 JOURNAL OF CHEMICAL PHYSICS, 118 (10), 4365-4369 (2003). 
 An efficient orbital transformation method for electronic structure
 calculations.
 https://doi.org/10.1063/1.1543154

 Martin,Richard L.. 
 The Journal of Chemical Physics, 118 (11), 4775-4777 (2003). 
 Natural transition orbitals.
 https://doi.org/10.1063/1.1558471

 Lippert, G; Hutter, J; Parrinello, M. 
 THEORETICAL CHEMISTRY ACCOUNTS, 103 (2), 124-140 (1999). 
 The Gaussian and augmented-plane-wave density functional method for ab
 initio molecular dynamics simulations.
 https://doi.org/10.1007/s002140050523

 Krack, M; Parrinello, M. 
 PHYSICAL CHEMISTRY CHEMICAL PHYSICS, 2 (10), 2105-2112 (2000). 
 All-electron ab-initio molecular dynamics.
 https://doi.org/10.1039/b001167n

 Martyna, GJ; Tuckerman, ME. 
 JOURNAL OF CHEMICAL PHYSICS, 110 (6), 2810-2821 (1999). 
 A reciprocal space based method for treating long range interactions in
 ab initio and force-field-based calculations in clusters.
 https://doi.org/10.1063/1.477923

 BECKE, AD. PHYSICAL REVIEW A, 38 (6), 3098-3100 (1988). 
 DENSITY-FUNCTIONAL EXCHANGE-ENERGY APPROXIMATION WITH CORRECT
 ASYMPTOTIC-BEHAVIOR.
 https://doi.org/10.1103/PhysRevA.38.3098

 LEE, CT; YANG, WT; PARR, RG. 
 PHYSICAL REVIEW B, 37 (2), 785-789 (1988). 
 DEVELOPMENT OF THE COLLE-SALVETTI CORRELATION-ENERGY FORMULA INTO A
 FUNCTIONAL OF THE ELECTRON-DENSITY.
 https://doi.org/10.1103/PhysRevB.37.785

 VOSKO, SH; WILK, L; NUSAIR, M. 
 CANADIAN JOURNAL OF PHYSICS, 58 (8), 1200-1211 (1980). 
 ACCURATE SPIN-DEPENDENT ELECTRON LIQUID CORRELATION ENERGIES FOR LOCAL
 SPIN-DENSITY CALCULATIONS - A CRITICAL ANALYSIS.
 https://doi.org/10.1139/p80-159


 -------------------------------------------------------------------------------
 -                                                                             -
 -                                T I M I N G                                  -
 -                                                                             -
 -------------------------------------------------------------------------------
 SUBROUTINE                       CALLS  ASD         SELF TIME        TOTAL TIME
                                MAXIMUM       AVERAGE  MAXIMUM  AVERAGE  MAXIMUM
 CP2K                                 1  1.0    0.013    0.018  277.898  277.899
 qs_forces                            1  2.0    0.001    0.001  276.900  276.900
 qs_energies                          1  3.0    0.000    0.000  182.609  182.610
 qs_energies_properties               1  4.0    0.000    0.000  161.272  161.272
 tddfpt                               1  5.0    0.000    0.000  161.272  161.272
 tddfpt_energies                      1  6.0    0.000    0.000  126.757  126.757
 tddfpt_davidson_solver               2  7.0    0.002    0.003  126.016  126.016
 tddfpt_compute_Aop_evects           12  8.0    0.000    0.000  125.619  125.619
 excited_state_energy                 2  3.5    0.001    0.002   81.301   81.301
 fhxc_kernel                         12  9.0    0.004    0.004   80.287   80.287
 fft_wrap_pw1pw2                   3848 12.2    0.042    0.049   74.760   78.792
 fft_wrap_pw1pw2_200               2683 13.5    2.269    2.359   72.484   76.676
 integrate_four_center              278 10.6    0.060    0.063   62.480   62.490
 response_equation                    1  4.0    0.000    0.000   59.785   59.785
 linres_solver                        1  5.0    0.001    0.003   59.751   59.751
 apply_op                            42  6.0    0.001    0.001   59.678   59.679
 integrate_four_center_main         278 11.6    0.024    0.029   57.937   59.237
 integrate_four_center_bin        26410 12.6   57.913   59.217   57.913   59.217
 fft3d_ps                          3848 14.2   31.153   33.364   54.780   58.851
 derivatives_four_center              4  8.5    0.005    0.008   49.165   49.942
 derivatives_four_center_main         4  9.5    0.000    0.001   49.076   49.855
 derivatives_four_center_bin        416 10.5   46.974   49.351   46.974   49.351
 tddfpt_apply_hfx                    12  9.0    0.002    0.002   45.214   45.214
 tddft_hfx_matrix                   216 10.0    0.005    0.005   44.758   44.758
 xc_pw_derive                      1398 12.4    0.011    0.012   42.000   43.885
 prepare_gapw_den                   219  8.8    0.005    0.006   35.157   35.331
 apply_op_2_dft                      41  7.0    0.003    0.003   34.970   35.047
 tddfpt_forces_main                   1  6.0    0.000    0.000   34.434   34.434
 tddfpt_forces                        1  7.0    0.000    0.000   33.106   33.106
 tddfpt_force_direct                  1  8.0    0.000    0.000   32.495   32.495
 tddfpt_kernel_force                  1  9.0    0.000    0.000   32.484   32.485
 fhxc_force                           1 10.0    0.001    0.001   32.484   32.485
 rebuild_ks_matrix                   17  6.8    0.000    0.000   31.985   31.985
 qs_ks_build_kohn_sham_matrix        17  7.8    0.002    0.002   31.984   31.985
 xc_pw_divergence                   211 12.3    0.005    0.006   25.944   27.887
 tddfpt_apply_xc_analytic           108 10.0    1.271    1.396   25.497   25.664
 calculate_rho_elec                 213  9.6    0.350    0.373   23.640   23.645
 qs_rho_update_rho_low              208  8.7    0.002    0.002   23.604   23.606
 response_force                       1  4.0    0.006    0.009   21.514   21.514
 scf_env_do_scf                       1  4.0    0.000    0.000   21.132   21.132
 calculate_rho0_atom                645  9.8   19.523   20.965   19.523   20.965
 hfx_ks_matrix                       17  8.8    0.001    0.001   20.316   20.317
 xc_calc_2nd_deriv_analytical       787 11.2    1.667    1.855   20.053   20.312
 qs_fxc_analytic                     42  8.0    0.002    0.002   19.373   19.452
 density_rs2pw                      213 10.6    0.009    0.009   18.420   19.340
 qs_ks_update_qs_env                 18  6.0    0.000    0.000   19.052   19.053
 xc_rho_set_and_dset_create         104 12.1    1.888    2.168   15.786   18.788
 mp_alltoall_z22v                  3848 16.2   12.931   17.568   12.931   17.568
 integrate_v_rspace                 175  9.4    0.003    0.004   16.642   17.429
 yz_to_x                           1962 15.3    4.410    4.885   12.833   16.955
 qs_vxc_create                       60 11.8    0.001    0.001   16.734   16.743
 xc_vxc_pw_create                    60 12.8    0.172    0.183   16.733   16.742
 scf_env_do_scf_inner_loop           16  5.0    0.000    0.001   15.371   15.372
 tddfpt_apply_coulomb               108 10.0    0.002    0.002   13.509   15.070
 xc_calc_2nd_deriv                   43  8.9    0.474    0.543   12.356   14.106
 x_to_yz                           1886 15.0    6.225    7.128   10.734   12.940
 qs_ks_update_qs_env_forces           1  3.0    0.000    0.000   12.933   12.933
 potential_pw2rs                    175 10.4    0.017    0.018   11.478   12.269
 qs_fgxc_gdiff                        1 11.0    0.000    0.000   11.907   11.908
 qs_fxc_fdiff                         7 12.0    0.001    0.001   11.877   11.879
 put_rho0_on_grid                   215  9.8    0.392    0.443   10.068   10.274
 transfer_rs2pw                    1068 11.5    0.012    0.014    9.052    9.990
 xc_prep_2nd_deriv                   44  8.9    0.000    0.000    7.631    9.089
 pw_gather_p                       1962 14.3    8.594    9.029    8.594    9.029
 apply_hfx                           41  7.0    0.001    0.001    8.579    8.585
 hfx_matrix                          41  8.0    0.001    0.001    8.575    8.582
 transfer_rs2pw_200                 429 12.2    3.450    3.581    7.153    8.100
 integrate_vhg0_rspace              171 10.0    1.868    1.993    8.029    8.042
 pw_poisson_solve                   172  9.9    0.003    0.003    6.136    7.820
 transfer_pw2rs                     872 11.3    0.008    0.009    7.712    7.744
 mp_sum_d                          2208  9.1    4.659    7.366    4.659    7.366
 xc_functional_eval                3264 12.0    0.004    0.008    3.630    6.575
 pw_scatter_p                      1886 14.0    6.297    6.472    6.297    6.472
 mp_waitany                       15520 13.2    5.303    6.273    5.303    6.273
 grid_collocate_task_list           213 10.6    4.442    6.197    4.442    6.197
 transfer_pw2rs_200                 347 12.2    2.970    3.018    5.966    6.032
 init_scf_loop                        1  5.0    0.000    0.000    5.760    5.760
 -------------------------------------------------------------------------------

 The number of warnings for this run is : 0
 
 -------------------------------------------------------------------------------
  **** **** ******  **  PROGRAM ENDED AT                 2025-01-09 14:29:49.818
 ***** ** ***  *** **   PROGRAM RAN ON                               nesh-clk353
 **    ****   ******    PROGRAM RAN BY                                  suphc356
 ***** **    ** ** **   PROGRAM PROCESS ID                               3119391
  **** **  *******  **  PROGRAM STOPPED IN /gxfs_work/cau/suphc356/NEWTONX_proje
                                           ct/Pyrazin_molecule/CP2K_GAPW_B3LYP_d
                                           ef2_TZVP/MOLDYN_BA_again/TRAJECTORIES
                                           /TRAJ198/TEMP
