 DBCSR| CPU Multiplication driver                                           XSMM (U)
 DBCSR| Multrec recursion limit                                              512 (U)
 DBCSR| Multiplication stack size                                           1000 (D)
 DBCSR| Maximum elements for images                                    UNLIMITED (U)
 DBCSR| Multiplicative factor virtual images                                   1 (U)
 DBCSR| Use multiplication densification                                       T (D)
 DBCSR| Multiplication size stacks                                             3 (U)
 DBCSR| Use memory pool for CPU allocation                                     F (U)
 DBCSR| Number of 3D layers                                               SINGLE (U)
 DBCSR| Use MPI memory allocation                                              F (U)
 DBCSR| Use RMA algorithm                                                      F (U)
 DBCSR| Use Communication thread                                               T (U)
 DBCSR| Communication thread load                                             87 (D)
 DBCSR| MPI: My process id                                                     0
 DBCSR| MPI: Number of processes                                              16
 DBCSR| OMP: Current number of threads                                         1
 DBCSR| OMP: Max number of threads                                             1
 DBCSR| Split modifier for TAS multiplication algorithm                  1.0E+00 (U)


  **** **** ******  **  PROGRAM STARTED AT               2025-01-09 12:25:41.420
 ***** ** ***  *** **   PROGRAM STARTED ON                           nesh-clk416
 **    ****   ******    PROGRAM STARTED BY                              suphc356
 ***** **    ** ** **   PROGRAM PROCESS ID                               3008418
  **** **  *******  **  PROGRAM STARTED IN /gxfs_work/cau/suphc356/NEWTONX_proje
                                           ct/Pyrazin_molecule/CP2K_GAPW_B3LYP_d
                                           ef2_TZVP/MOLDYN_BA_again/TRAJECTORIES
                                           /TRAJ191/TEMP

 CP2K| version string:                 CP2K version 2024.1 (Development Version)
 CP2K| source code revision number:                                  git:990486a
 CP2K| cp2kflags: omp libint fftw3 libxc libgrpp parallel mpi_f08 scalapack cosm
 CP2K|            a xsmm spglib mkl
 CP2K| is freely available from                            https://www.cp2k.org/
 CP2K| Program compiled at                          Mon Mar 11 08:48:45 CET 2024
 CP2K| Program compiled on                                           nesh-login2
 CP2K| Program compiled for                                                local
 CP2K| Data directory path                 /gxfs_work/cau/suphc356/cp2k_gcc/data
 CP2K| Input file name                                                  cp2k.inp

 GLOBAL| Force Environment number                                              1
 GLOBAL| Basis set file name                                     EMSL_BASIS_SETS
 GLOBAL| Potential file name                                      ALL_POTENTIALS
 GLOBAL| MM Potential file name                                     MM_POTENTIAL
 GLOBAL| Coordinate file name                                      __STD_INPUT__
 GLOBAL| Method name                                                        CP2K
 GLOBAL| Project name                                               testsuite_ad
 GLOBAL| Run type                                                   ENERGY_FORCE
 GLOBAL| FFT library                                                       FFTW3
 GLOBAL| Diagonalization library                                       ScaLAPACK
 GLOBAL| DGEMM library                                                      BLAS
 GLOBAL| Orthonormality check for eigenvectors                          DISABLED
 GLOBAL| Matrix multiplication library                                     COSMA
 GLOBAL| All-to-all communication in single precision                          F
 GLOBAL| FFTs using library dependent lengths                                  F
 GLOBAL| Grid backend                                                       AUTO
 GLOBAL| Global print level                                               MEDIUM
 GLOBAL| MPI I/O enabled                                                       T
 GLOBAL| Total number of message passing processes                            16
 GLOBAL| Number of threads for this process                                    1
 GLOBAL| This output is from process                                           0
 GLOBAL| Stack size for threads created by OpenMP (OMP_STACKSIZE)           256M
 GLOBAL| CPU model name                Intel(R) Xeon(R) Gold 6226R CPU @ 2.90GHz
 GLOBAL| CPUID                                                              1003
 GLOBAL| Compiled for CPUID                                                    0

 *** HINT in environment.F:920 :: The compiler target flags (generic) used ***
 *** to build this binary cannot exploit all extensions of this CPU model  ***
 *** (x86_avx512). Consider compiler target flags as part of FCFLAGS and   ***
 *** CFLAGS (ARCH file).                                                   ***


 MEMORY| system memory details [Kb]
 MEMORY|                        rank 0           min           max       average
 MEMORY| MemTotal            196679108     196679108     196679108     196679108
 MEMORY| MemFree             168999912     168999912     168999912     168999912
 MEMORY| Buffers                668308        668308        668308        668308
 MEMORY| Cached                1106440       1106440       1106440       1106440
 MEMORY| Slab                 11266604      11266604      11266604      11266604
 MEMORY| SReclaimable           273232        273232        273232        273232
 MEMORY| MemLikelyFree       171047892     171047892     171047892     171047892


 *** Fundamental physical constants (SI units) ***

 *** Literature: B. J. Mohr and B. N. Taylor,
 ***             CODATA recommended values of the fundamental physical
 ***             constants: 2006, Web Version 5.1
 ***             http://physics.nist.gov/constants

 Speed of light in vacuum [m/s]                             2.99792458000000E+08
 Magnetic constant or permeability of vacuum [N/A**2]       1.25663706143592E-06
 Electric constant or permittivity of vacuum [F/m]          8.85418781762039E-12
 Planck constant (h) [J*s]                                  6.62606896000000E-34
 Planck constant (h-bar) [J*s]                              1.05457162825177E-34
 Elementary charge [C]                                      1.60217648700000E-19
 Electron mass [kg]                                         9.10938215000000E-31
 Electron g factor [ ]                                     -2.00231930436220E+00
 Proton mass [kg]                                           1.67262163700000E-27
 Fine-structure constant                                    7.29735253760000E-03
 Rydberg constant [1/m]                                     1.09737315685270E+07
 Avogadro constant [1/mol]                                  6.02214179000000E+23
 Boltzmann constant [J/K]                                   1.38065040000000E-23
 Atomic mass unit [kg]                                      1.66053878200000E-27
 Bohr radius [m]                                            5.29177208590000E-11

 *** Conversion factors ***

 [u] -> [a.u.]                                              1.82288848426455E+03
 [Angstrom] -> [Bohr] = [a.u.]                              1.88972613288564E+00
 [a.u.] = [Bohr] -> [Angstrom]                              5.29177208590000E-01
 [a.u.] -> [s]                                              2.41888432650478E-17
 [a.u.] -> [fs]                                             2.41888432650478E-02
 [a.u.] -> [J]                                              4.35974393937059E-18
 [a.u.] -> [N]                                              8.23872205491840E-08
 [a.u.] -> [K]                                              3.15774647902944E+05
 [a.u.] -> [kJ/mol]                                         2.62549961709828E+03
 [a.u.] -> [kcal/mol]                                       6.27509468713739E+02
 [a.u.] -> [Pa]                                             2.94210107994716E+13
 [a.u.] -> [bar]                                            2.94210107994716E+08
 [a.u.] -> [atm]                                            2.90362800883016E+08
 [a.u.] -> [eV]                                             2.72113838565563E+01
 [a.u.] -> [Hz]                                             6.57968392072181E+15
 [a.u.] -> [1/cm] (wave numbers)                            2.19474631370540E+05
 [a.u./Bohr**2] -> [1/cm]                                   5.14048714338585E+03
 

 CELL_TOP| Volume [angstrom^3]:                                      2744.000000
 CELL_TOP| Vector a [angstrom    14.000     0.000     0.000   |a| =    14.000000
 CELL_TOP| Vector b [angstrom     0.000    14.000     0.000   |b| =    14.000000
 CELL_TOP| Vector c [angstrom     0.000     0.000    14.000   |c| =    14.000000
 CELL_TOP| Angle (b,c), alpha [degree]:                                90.000000
 CELL_TOP| Angle (a,c), beta  [degree]:                                90.000000
 CELL_TOP| Angle (a,b), gamma [degree]:                                90.000000
 CELL_TOP| Numerically orthorhombic:                                         YES
 CELL_TOP| Periodicity                                                      NONE

 CELL| Volume [angstrom^3]:                                          2744.000000
 CELL| Vector a [angstrom]:      14.000     0.000     0.000   |a| =    14.000000
 CELL| Vector b [angstrom]:       0.000    14.000     0.000   |b| =    14.000000
 CELL| Vector c [angstrom]:       0.000     0.000    14.000   |c| =    14.000000
 CELL| Angle (b,c), alpha [degree]:                                    90.000000
 CELL| Angle (a,c), beta  [degree]:                                    90.000000
 CELL| Angle (a,b), gamma [degree]:                                    90.000000
 CELL| Numerically orthorhombic:                                             YES
 CELL| Periodicity                                                          NONE

 CELL_REF| Volume [angstrom^3]:                                      2744.000000
 CELL_REF| Vector a [angstrom    14.000     0.000     0.000   |a| =    14.000000
 CELL_REF| Vector b [angstrom     0.000    14.000     0.000   |b| =    14.000000
 CELL_REF| Vector c [angstrom     0.000     0.000    14.000   |c| =    14.000000
 CELL_REF| Angle (b,c), alpha [degree]:                                90.000000
 CELL_REF| Angle (a,c), beta  [degree]:                                90.000000
 CELL_REF| Angle (a,b), gamma [degree]:                                90.000000
 CELL_REF| Numerically orthorhombic:                                         YES
 CELL_REF| Periodicity                                                      NONE

 *******************************************************************************
 *******************************************************************************
 **                                                                           **
 **     #####                         ##              ##                      **
 **    ##   ##            ##          ##              ##                      **
 **   ##     ##                       ##            ######                    **
 **   ##     ##  ##   ##  ##   #####  ##  ##   ####   ##    #####    #####    **
 **   ##     ##  ##   ##  ##  ##      ## ##   ##      ##   ##   ##  ##   ##   **
 **   ##  ## ##  ##   ##  ##  ##      ####     ###    ##   ######   ######    **
 **    ##  ###   ##   ##  ##  ##      ## ##      ##   ##   ##       ##        **
 **     #######   #####   ##   #####  ##  ##  ####    ##    #####   ##        **
 **           ##                                                    ##        **
 **                                                                           **
 **                                                ... make the atoms dance   **
 **                                                                           **
 **            Copyright (C) by CP2K developers group (2000-2024)             **
 **                      J. Chem. Phys. 152, 194103 (2020)                    **
 **                                                                           **
 *******************************************************************************

 DFT| Spin restricted Kohn-Sham (RKS) calculation                            RKS
 DFT| Multiplicity                                                             1
 DFT| Number of spin states                                                    1
 DFT| Charge                                                                   0
 DFT| Self-interaction correction (SIC)                                       NO
 DFT| Cutoffs: density                                              1.000000E-10
 DFT|          gradient                                             1.000000E-10
 DFT|          tau                                                  1.000000E-10
 DFT|          cutoff_smoothing_range                               0.000000E+00
 DFT| XC density smoothing                                                  NONE
 DFT| XC derivatives                                                          PW

 FUNCTIONAL| BECKE88:
 FUNCTIONAL| A. Becke, Phys. Rev. A 38, 3098 (1988) {LDA version}               
 FUNCTIONAL| LYP:
 FUNCTIONAL| C. Lee, W. Yang, R.G. Parr, Phys. Rev. B, 37, 785 (1988) {LDA versi
 FUNCTIONAL| on}                                                                
 FUNCTIONAL| VWN:
 FUNCTIONAL| S. H. Vosko, L. Wilk and M. Nusair, Can. J. Phys. 58, 1200 (1980) {
 FUNCTIONAL| LDA version}                                                       
 FUNCTIONAL| XALPHA:
 FUNCTIONAL| Dirac/Slater local exchange; parameter=  0.666 {LDA}               

 vdW POTENTIAL|                                                   Pair Potential
 vdW POTENTIAL|          DFT-D3 (Version 3.1)
 vdW POTENTIAL|          Potential Form: S. Grimme et al, JCP 132: 154104 (2010)
 vdW POTENTIAL|          Zero Damping
 vdW POTENTIAL|          Cutoff Radius [Bohr]:                             37.79
 vdW POTENTIAL|          s6 Scaling Factor:                               1.0000
 vdW POTENTIAL|          sr6 Scaling Factor:                              1.2610
 vdW POTENTIAL|          s8 Scaling Factor:                               1.7030
 vdW POTENTIAL|          Cutoff for CN calculation:                   0.1000E-05

 QS| Method:                                                                GAPW
 QS| Density plane wave grid type                        NON-SPHERICAL FULLSPACE
 QS| Number of grid levels:                                                    4
 QS| Density cutoff [a.u.]:                                                200.0
 QS| Multi grid cutoff [a.u.]: 1) grid level                               200.0
 QS|                           2) grid level                                66.7
 QS|                           3) grid level                                22.2
 QS|                           4) grid level                                 7.4
 QS| Grid level progression factor:                                          3.0
 QS| Relative density cutoff [a.u.]:                                        30.0
 QS| Interaction thresholds: eps_pgf_orb:                                1.0E-07
 QS|                         eps_filter_matrix:                          0.0E+00
 QS|                         eps_core_charge:                            1.0E-16
 QS|                         eps_rho_gspace:                             1.0E-14
 QS|                         eps_rho_rspace:                             1.0E-14
 QS|                         eps_gvg_rspace:                             1.0E-07
 QS|                         eps_ppl:                                    1.0E-02
 QS|                         eps_ppnl:                                   1.0E-09
 QS| GAPW|      One center basis extended with primitives (small:s)
 QS| GAPW|                   eps_fit:                                    1.0E-04
 QS| GAPW|                   eps_iso:                                    1.0E-12
 QS| GAPW|                   eps_svd:                                    1.0E-08
 QS| GAPW|                   eps_cpc:                                    1.0E-14
 QS| GAPW|   atom-r-grid: quadrature:                                     GC_LOG
 QS| GAPW|      atom-s-grid:  max l :                                          6
 QS| GAPW|      max_l_rho0 :                                                   4


 ATOMIC KIND INFORMATION

  1. Atomic kind: n                                     Number of atoms:       2

     Orbital Basis Set                                        Ahlrichs-def2-TZVP

       Number of orbital shell sets:                                          11
       Number of orbital shells:                                              11
       Number of primitive Cartesian functions:                               20
       Number of Cartesian basis functions:                                   36
       Number of spherical basis functions:                                   31
       Norm type:                                                              2

       Normalised Cartesian orbitals:

                        Set   Shell   Orbital            Exponent    Coefficient

                          1       1    1s            19730.800647       0.695604
                                                      2957.895874       1.298610
                                                       673.221336       2.219088
                                                       190.682495       3.463661
                                                        62.295442       4.696756
                                                        22.654161       4.952251

                          2       1    1s                8.979148       2.388068
                                                         3.686300       0.733788

                          3       1    1s                0.846601       0.629027

                          4       1    1s                0.336471       0.314863

                          5       1    1s                0.136477       0.160031

                          6       1    1px              49.200381       2.126481
                                                        11.346791       2.327937
                                                         3.427397       2.048573
                                                         1.178553       1.260732
                          6       1    1py              49.200381       2.126481
                                                        11.346791       2.327937
                                                         3.427397       2.048573
                                                         1.178553       1.260732
                          6       1    1pz              49.200381       2.126481
                                                        11.346791       2.327937
                                                         3.427397       2.048573
                                                         1.178553       1.260732

                          7       1    1px               0.416422       0.476823
                          7       1    1py               0.416422       0.476823
                          7       1    1pz               0.416422       0.476823

                          8       1    1px               0.142608       0.124917
                          8       1    1py               0.142608       0.124917
                          8       1    1pz               0.142608       0.124917

                          9       1    1dx2              1.654000       3.970513
                          9       1    1dxy              1.654000       6.877130
                          9       1    1dxz              1.654000       6.877130
                          9       1    1dy2              1.654000       3.970513
                          9       1    1dyz              1.654000       6.877130
                          9       1    1dz2              1.654000       3.970513

                         10       1    1dx2              0.469000       0.437484
                         10       1    1dxy              0.469000       0.757744
                         10       1    1dxz              0.469000       0.757744
                         10       1    1dy2              0.469000       0.437484
                         10       1    1dyz              0.469000       0.757744
                         10       1    1dz2              0.469000       0.437484

                         11       1    1fx3              1.093000       1.798249
                         11       1    1fx2y             1.093000       4.021007
                         11       1    1fx2z             1.093000       4.021007
                         11       1    1fxy2             1.093000       4.021007
                         11       1    1fxyz             1.093000       6.964588
                         11       1    1fxz2             1.093000       4.021007
                         11       1    1fy3              1.093000       1.798249
                         11       1    1fy2z             1.093000       4.021007
                         11       1    1fyz2             1.093000       4.021007
                         11       1    1fz3              1.093000       1.798249

       Atomic covalent radius [Angstrom]:                                  0.750

       Atomic van der Waals radius [Angstrom]:                             1.550

     The atoms of this atomic kind are PAW atoms (GAPW):
       Hard Gaussian function radius:                                      1.400
       Rho0 radius:                                                        1.400
       Maximum GTO radius used for PAW projector construction:            24.566

     GAPW Soft Basis Set                                 Ahlrichs-def2-TZVP_soft

       Number of orbital shell sets:                                          11
       Number of orbital shells:                                              11
       Number of primitive Cartesian functions:                               11
       Number of Cartesian basis functions:                                   36
       Number of spherical basis functions:                                   31
       Norm type:                                                              2

       Normalised Cartesian orbitals:

                        Set   Shell   Orbital            Exponent    Coefficient

                          1       1    1s         

                          2       1    1s                3.686300       0.733788

                          3       1    1s                0.846601       0.629027

                          4       1    1s                0.336471       0.314863

                          5       1    1s                0.136477       0.160031

                          6       1    1px               3.427397       2.048573
                                                         1.178553       1.260732
                          6       1    1py               3.427397       2.048573
                                                         1.178553       1.260732
                          6       1    1pz               3.427397       2.048573
                                                         1.178553       1.260732

                          7       1    1px               0.416422       0.476823
                          7       1    1py               0.416422       0.476823
                          7       1    1pz               0.416422       0.476823

                          8       1    1px               0.142608       0.124917
                          8       1    1py               0.142608       0.124917
                          8       1    1pz               0.142608       0.124917

                          9       1    1dx2              1.654000       3.970513
                          9       1    1dxy              1.654000       6.877130
                          9       1    1dxz              1.654000       6.877130
                          9       1    1dy2              1.654000       3.970513
                          9       1    1dyz              1.654000       6.877130
                          9       1    1dz2              1.654000       3.970513

                         10       1    1dx2              0.469000       0.437484
                         10       1    1dxy              0.469000       0.757744
                         10       1    1dxz              0.469000       0.757744
                         10       1    1dy2              0.469000       0.437484
                         10       1    1dyz              0.469000       0.757744
                         10       1    1dz2              0.469000       0.437484

                         11       1    1fx3              1.093000       1.798249
                         11       1    1fx2y             1.093000       4.021007
                         11       1    1fx2z             1.093000       4.021007
                         11       1    1fxy2             1.093000       4.021007
                         11       1    1fxyz             1.093000       6.964588
                         11       1    1fxz2             1.093000       4.021007
                         11       1    1fy3              1.093000       1.798249
                         11       1    1fy2z             1.093000       4.021007
                         11       1    1fyz2             1.093000       4.021007
                         11       1    1fz3              1.093000       1.798249

     AE Potential information for                                            ALL

       Description:                                       All-electron potential
                                          Krack, Parrinello, PCCP 2, 2105 (2000)

       Gaussian exponent of the core charge distribution:               5.979100
       Electronic configuration (s p d ...):                           4   3   0

  2. Atomic kind: c                                     Number of atoms:       4

     Orbital Basis Set                                        Ahlrichs-def2-TZVP

       Number of orbital shell sets:                                          11
       Number of orbital shells:                                              11
       Number of primitive Cartesian functions:                               20
       Number of Cartesian basis functions:                                   36
       Number of spherical basis functions:                                   31
       Norm type:                                                              2

       Normalised Cartesian orbitals:

                        Set   Shell   Orbital            Exponent    Coefficient

                          1       1    1s            13575.349682       0.543591
                                                      2035.233368       1.014554
                                                       463.225624       1.731573
                                                       131.200196       2.691038
                                                        42.853016       3.604455
                                                        15.584186       3.702556

                          2       1    1s                6.206714       1.838354
                                                         2.576490       0.544758

                          3       1    1s                0.576963       0.471815

                          4       1    1s                0.229728       0.236494

                          5       1    1s                0.095164       0.122114

                          6       1    1px              34.697232       1.359665
                                                         7.958262       1.451259
                                                         2.378083       1.270923
                                                         0.814332       0.802572
                          6       1    1py              34.697232       1.359665
                                                         7.958262       1.451259
                                                         2.378083       1.270923
                                                         0.814332       0.802572
                          6       1    1pz              34.697232       1.359665
                                                         7.958262       1.451259
                                                         2.378083       1.270923
                                                         0.814332       0.802572

                          7       1    1px               0.288875       0.301876
                          7       1    1py               0.288875       0.301876
                          7       1    1pz               0.288875       0.301876

                          8       1    1px               0.100568       0.080727
                          8       1    1py               0.100568       0.080727
                          8       1    1pz               0.100568       0.080727

                          9       1    1dx2              1.097000       1.935401
                          9       1    1dxy              1.097000       3.352214
                          9       1    1dxz              1.097000       3.352214
                          9       1    1dy2              1.097000       1.935401
                          9       1    1dyz              1.097000       3.352214
                          9       1    1dz2              1.097000       1.935401

                         10       1    1dx2              0.318000       0.221644
                         10       1    1dxy              0.318000       0.383899
                         10       1    1dxz              0.318000       0.383899
                         10       1    1dy2              0.318000       0.221644
                         10       1    1dyz              0.318000       0.383899
                         10       1    1dz2              0.318000       0.221644

                         11       1    1fx3              0.761000       0.796288
                         11       1    1fx2y             0.761000       1.780553
                         11       1    1fx2z             0.761000       1.780553
                         11       1    1fxy2             0.761000       1.780553
                         11       1    1fxyz             0.761000       3.084008
                         11       1    1fxz2             0.761000       1.780553
                         11       1    1fy3              0.761000       0.796288
                         11       1    1fy2z             0.761000       1.780553
                         11       1    1fyz2             0.761000       1.780553
                         11       1    1fz3              0.761000       0.796288

       Atomic covalent radius [Angstrom]:                                  0.770

       Atomic van der Waals radius [Angstrom]:                             1.700

     The atoms of this atomic kind are PAW atoms (GAPW):
       Hard Gaussian function radius:                                      1.520
       Rho0 radius:                                                        1.520
       Maximum GTO radius used for PAW projector construction:            24.566

     GAPW Soft Basis Set                                 Ahlrichs-def2-TZVP_soft

       Number of orbital shell sets:                                          11
       Number of orbital shells:                                              11
       Number of primitive Cartesian functions:                               11
       Number of Cartesian basis functions:                                   36
       Number of spherical basis functions:                                   31
       Norm type:                                                              2

       Normalised Cartesian orbitals:

                        Set   Shell   Orbital            Exponent    Coefficient

                          1       1    1s         

                          2       1    1s                2.576490       0.544758

                          3       1    1s                0.576963       0.471815

                          4       1    1s                0.229728       0.236494

                          5       1    1s                0.095164       0.122114

                          6       1    1px               2.378083       1.270923
                                                         0.814332       0.802572
                          6       1    1py               2.378083       1.270923
                                                         0.814332       0.802572
                          6       1    1pz               2.378083       1.270923
                                                         0.814332       0.802572

                          7       1    1px               0.288875       0.301876
                          7       1    1py               0.288875       0.301876
                          7       1    1pz               0.288875       0.301876

                          8       1    1px               0.100568       0.080727
                          8       1    1py               0.100568       0.080727
                          8       1    1pz               0.100568       0.080727

                          9       1    1dx2              1.097000       1.935401
                          9       1    1dxy              1.097000       3.352214
                          9       1    1dxz              1.097000       3.352214
                          9       1    1dy2              1.097000       1.935401
                          9       1    1dyz              1.097000       3.352214
                          9       1    1dz2              1.097000       1.935401

                         10       1    1dx2              0.318000       0.221644
                         10       1    1dxy              0.318000       0.383899
                         10       1    1dxz              0.318000       0.383899
                         10       1    1dy2              0.318000       0.221644
                         10       1    1dyz              0.318000       0.383899
                         10       1    1dz2              0.318000       0.221644

                         11       1    1fx3              0.761000       0.796288
                         11       1    1fx2y             0.761000       1.780553
                         11       1    1fx2z             0.761000       1.780553
                         11       1    1fxy2             0.761000       1.780553
                         11       1    1fxyz             0.761000       3.084008
                         11       1    1fxz2             0.761000       1.780553
                         11       1    1fy3              0.761000       0.796288
                         11       1    1fy2z             0.761000       1.780553
                         11       1    1fyz2             0.761000       1.780553
                         11       1    1fz3              0.761000       0.796288

     AE Potential information for                                            ALL

       Description:                                       All-electron potential
                                          Krack, Parrinello, PCCP 2, 2105 (2000)

       Gaussian exponent of the core charge distribution:               4.109048
       Electronic configuration (s p d ...):                           4   2   0

  3. Atomic kind: h                                     Number of atoms:       4

     Orbital Basis Set                                        Ahlrichs-def2-TZVP

       Number of orbital shell sets:                                           4
       Number of orbital shells:                                               4
       Number of primitive Cartesian functions:                                6
       Number of Cartesian basis functions:                                    6
       Number of spherical basis functions:                                    6
       Norm type:                                                              2

       Normalised Cartesian orbitals:

                        Set   Shell   Orbital            Exponent    Coefficient

                          1       1    1s               34.061341       0.255630
                                                         5.123575       0.461360
                                                         1.164663       0.681121

                          2       1    1s                0.327230       0.308355

                          3       1    1s                0.103072       0.129648

                          4       1    1px               0.800000       1.078456
                          4       1    1py               0.800000       1.078456
                          4       1    1pz               0.800000       1.078456

       Atomic covalent radius [Angstrom]:                                  0.320

       Atomic van der Waals radius [Angstrom]:                             1.090

     The atoms of this atomic kind are PAW atoms (GAPW):
       Hard Gaussian function radius:                                      1.000
       Rho0 radius:                                                        1.000
       Maximum GTO radius used for PAW projector construction:            24.566

     GAPW Soft Basis Set                                 Ahlrichs-def2-TZVP_soft

       Number of orbital shell sets:                                           4
       Number of orbital shells:                                               4
       Number of primitive Cartesian functions:                                5
       Number of Cartesian basis functions:                                    6
       Number of spherical basis functions:                                    6
       Norm type:                                                              2

       Normalised Cartesian orbitals:

                        Set   Shell   Orbital            Exponent    Coefficient

                          1       1    1s                5.123575       0.461360
                                                         1.164663       0.681121

                          2       1    1s                0.327230       0.308355

                          3       1    1s                0.103072       0.129648

                          4       1    1px               0.800000       1.078456
                          4       1    1py               0.800000       1.078456
                          4       1    1pz               0.800000       1.078456

     AE Potential information for                                            ALL

       Description:                                       All-electron potential
                                          Krack, Parrinello, PCCP 2, 2105 (2000)

       Gaussian exponent of the core charge distribution:              12.500000
       Electronic configuration (s p d ...):                           1   0   0


 MOLECULE KIND INFORMATION


 All atoms are their own molecule, skipping detailed information


 TOTAL NUMBERS AND MAXIMUM NUMBERS

  Total number of            - Atomic kinds:                                   3
                             - Atoms:                                         10
                             - Shell sets:                                    82
                             - Shells:                                        82
                             - Primitive Cartesian functions:                144
                             - Cartesian basis functions:                    240
                             - Spherical basis functions:                    210

  Maximum angular momentum of the orbital basis functions:                     3


 MODULE QUICKSTEP: ATOMIC COORDINATES IN ANGSTROM

   Atom Kind Element         X             Y             Z       Z(eff)     Mass
      1    1 n     7      7.160553      8.143010      7.583141   7.0000  14.0067
      2    1 n     7      7.025670      5.938557      6.347385   7.0000  14.0067
      3    2 c     6      7.133581      7.147671      8.538358   6.0000  12.0107
      4    2 c     6      7.146213      5.941013      7.747701   6.0000  12.0107
      5    2 c     6      7.160217      8.194180      6.250422   6.0000  12.0107
      6    2 c     6      7.284088      7.067930      5.418814   6.0000  12.0107
      7    3 h     1      6.783283      7.395241      9.501359   1.0000   1.0079
      8    3 h     1      7.030481      4.906892      8.193649   1.0000   1.0079
      9    3 h     1      6.715912      9.093108      5.794995   1.0000   1.0079
     10    3 h     1      7.014969      6.449792      4.498641   1.0000   1.0079



 SCF PARAMETERS         Density guess:                                   RESTART
                        --------------------------------------------------------
                        max_scf:                                              50
                        max_scf_history:                                       0
                        max_diis:                                              4
                        --------------------------------------------------------
                        eps_scf:                                        1.00E-08
                        eps_scf_history:                                0.00E+00
                        eps_diis:                                       1.00E-01
                        eps_eigval:                                     1.00E-05
                        --------------------------------------------------------
                        level_shift [a.u.]:                             0.000000
                        --------------------------------------------------------
                        Outer loop SCF in use 
                        No variables optimised in outer loop
                        eps_scf                                         1.00E-08
                        max_scf                                              900
                        No outer loop optimization
                        step_size                                       5.00E-01

 PW_GRID| Information for grid number                                          1
 PW_GRID| Grid distributed over                                    16 processors
 PW_GRID| Real space group dimensions                                    16    1
 PW_GRID| the grid is blocked:                                                NO
 PW_GRID| Cutoff [a.u.]                                                    400.0
 PW_GRID| spherical cutoff:                                                   NO
 PW_GRID|   Bounds   1           -120     119                Points:         240
 PW_GRID|   Bounds   2           -120     119                Points:         240
 PW_GRID|   Bounds   3           -120     119                Points:         240
 PW_GRID| Volume element (a.u.^3)  0.1340E-02     Volume (a.u.^3)     18517.4301
 PW_GRID| Grid span                                                    FULLSPACE
 PW_GRID|   Distribution                         Average         Max         Min
 PW_GRID|   G-Vectors                           864000.0      864000      864000
 PW_GRID|   G-Rays                                3600.0        3600        3600
 PW_GRID|   Real Space Points                   864000.0      864000      864000

 PW_GRID| Information for grid number                                          2
 PW_GRID| Number of the reference grid                                         1
 PW_GRID| Grid distributed over                                    16 processors
 PW_GRID| Real space group dimensions                                    16    1
 PW_GRID| the grid is blocked:                                                NO
 PW_GRID| Cutoff [a.u.]                                                    200.0
 PW_GRID| spherical cutoff:                                                   NO
 PW_GRID|   Bounds   1            -90      89                Points:         180
 PW_GRID|   Bounds   2            -90      89                Points:         180
 PW_GRID|   Bounds   3            -90      89                Points:         180
 PW_GRID| Volume element (a.u.^3)  0.3175E-02     Volume (a.u.^3)     18517.4301
 PW_GRID| Grid span                                                    FULLSPACE
 PW_GRID|   Distribution                         Average         Max         Min
 PW_GRID|   G-Vectors                           364500.0      364680      364320
 PW_GRID|   G-Rays                                2025.0        2026        2024
 PW_GRID|   Real Space Points                   364500.0      388800      356400

 PW_GRID| Information for grid number                                          3
 PW_GRID| Number of the reference grid                                         2
 PW_GRID| Grid distributed over                                    16 processors
 PW_GRID| Real space group dimensions                                    16    1
 PW_GRID| the grid is blocked:                                                NO
 PW_GRID| Cutoff [a.u.]                                                     66.7
 PW_GRID| spherical cutoff:                                                   NO
 PW_GRID|   Bounds   1            -50      49                Points:         100
 PW_GRID|   Bounds   2            -50      49                Points:         100
 PW_GRID|   Bounds   3            -50      49                Points:         100
 PW_GRID| Volume element (a.u.^3)  0.1852E-01     Volume (a.u.^3)     18517.4301
 PW_GRID| Grid span                                                    FULLSPACE
 PW_GRID|   Distribution                         Average         Max         Min
 PW_GRID|   G-Vectors                            62500.0       62600       62400
 PW_GRID|   G-Rays                                 625.0         626         624
 PW_GRID|   Real Space Points                    62500.0       70000       60000

 PW_GRID| Information for grid number                                          4
 PW_GRID| Number of the reference grid                                         2
 PW_GRID| Grid distributed over                                    16 processors
 PW_GRID| Real space group dimensions                                    16    1
 PW_GRID| the grid is blocked:                                                NO
 PW_GRID| Cutoff [a.u.]                                                     22.2
 PW_GRID| spherical cutoff:                                                   NO
 PW_GRID|   Bounds   1            -30      29                Points:          60
 PW_GRID|   Bounds   2            -30      29                Points:          60
 PW_GRID|   Bounds   3            -30      29                Points:          60
 PW_GRID| Volume element (a.u.^3)  0.8573E-01     Volume (a.u.^3)     18517.4301
 PW_GRID| Grid span                                                    FULLSPACE
 PW_GRID|   Distribution                         Average         Max         Min
 PW_GRID|   G-Vectors                            13500.0       13560       13440
 PW_GRID|   G-Rays                                 225.0         226         224
 PW_GRID|   Real Space Points                    13500.0       14400       10800

 PW_GRID| Information for grid number                                          5
 PW_GRID| Number of the reference grid                                         2
 PW_GRID| Grid distributed over                                    16 processors
 PW_GRID| Real space group dimensions                                    16    1
 PW_GRID| the grid is blocked:                                                NO
 PW_GRID| Cutoff [a.u.]                                                      7.4
 PW_GRID| spherical cutoff:                                                   NO
 PW_GRID|   Bounds   1            -18      17                Points:          36
 PW_GRID|   Bounds   2            -18      17                Points:          36
 PW_GRID|   Bounds   3            -18      17                Points:          36
 PW_GRID| Volume element (a.u.^3)  0.3969         Volume (a.u.^3)     18517.4301
 PW_GRID| Grid span                                                    FULLSPACE
 PW_GRID|   Distribution                         Average         Max         Min
 PW_GRID|   G-Vectors                             2916.0        2952        2880
 PW_GRID|   G-Rays                                  81.0          82          80
 PW_GRID|   Real Space Points                     2916.0        3888        2592

 POISSON| Solver                                          Martyna-Tuckerman (MT)
 POISSON| MT| Alpha                                                        7.000
 POISSON| MT| Relative cutoff                                                2.0
 POISSON| Periodicity                                                       NONE

 RS_GRID| Information for grid number                                          2
 RS_GRID|   Bounds   1            -90      89                Points:         180
 RS_GRID|   Bounds   2            -90      89                Points:         180
 RS_GRID|   Bounds   3            -90      89                Points:         180
 RS_GRID| Real space distribution over                                  4 groups
 RS_GRID| Real space distribution along direction                              2
 RS_GRID| Border size                                                         31
 RS_GRID| Real space distribution over                                  4 groups
 RS_GRID| Real space distribution along direction                              3
 RS_GRID| Border size                                                         31
 RS_GRID|   Distribution                         Average         Max         Min
 RS_GRID|   Planes                                 107.0         107         107
 RS_GRID|   Distribution                         Average         Max         Min
 RS_GRID|   Planes                                 107.0         107         107

 RS_GRID| Information for grid number                                          3
 RS_GRID|   Bounds   1            -50      49                Points:         100
 RS_GRID|   Bounds   2            -50      49                Points:         100
 RS_GRID|   Bounds   3            -50      49                Points:         100
 RS_GRID| Real space fully replicated
 RS_GRID| Group size                                                           1

 RS_GRID| Information for grid number                                          4
 RS_GRID|   Bounds   1            -30      29                Points:          60
 RS_GRID|   Bounds   2            -30      29                Points:          60
 RS_GRID|   Bounds   3            -30      29                Points:          60
 RS_GRID| Real space fully replicated
 RS_GRID| Group size                                                           1

 RS_GRID| Information for grid number                                          5
 RS_GRID|   Bounds   1            -18      17                Points:          36
 RS_GRID|   Bounds   2            -18      17                Points:          36
 RS_GRID|   Bounds   3            -18      17                Points:          36
 RS_GRID| Real space fully replicated
 RS_GRID| Group size                                                           1

  HFX_INFO| Replica ID:                                                        1
  HFX_INFO| FRACTION:                                               0.2000000000
  HFX_INFO| Interaction Potential:                                       COULOMB
  HFX_INFO| EPS_SCHWARZ:                                                 1.0E-10
  HFX_INFO| EPS_SCHWARZ_FORCES                                           1.0E-08
  HFX_INFO| EPS_STORAGE_SCALING:                                         1.0E+00
  HFX_INFO| NBINS:                                                            64
  HFX_INFO| BLOCK_SIZE:                                                        1
  HFX_INFO| Number of periodic shells considered:                           NONE
  HFX_INFO| Number of periodic cells considered:                            NONE


 Number of electrons:                                                         42
 Number of occupied orbitals:                                                 21
 Number of molecular orbitals:                                                21

 Number of orbital functions:                                                210
 Number of independent orbital functions:                                    210

 Extrapolation method: initial_guess


 SCF WAVEFUNCTION OPTIMIZATION

  ----------------------------------- OT ---------------------------------------
  Minimizer      : DIIS                : direct inversion
                                         in the iterative subspace
                                         using   7 DIIS vectors
                                         safer DIIS on
  Preconditioner : FULL_ALL            : diagonalization, state selective
  Precond_solver : DEFAULT
  stepsize       :    0.15000000                  energy_gap     :    0.08000000
  eps_taylor     :   0.10000E-15                  max_taylor     :             4
  ----------------------------------- OT ---------------------------------------

  Step     Update method      Time    Convergence         Total energy    Change
  ------------------------------------------------------------------------------

  HFX_MEM_INFO| Est. max. program size before HFX [MiB]:                     637
  HFX_MEM_INFO| Number of cart. primitive ERI's calculated:           1697990239
  HFX_MEM_INFO| Number of sph. ERI's calculated:                       315041276
  HFX_MEM_INFO| Number of sph. ERI's stored in-core:                   315041276
  HFX_MEM_INFO| Number of sph. ERI's stored on disk:                           0
  HFX_MEM_INFO| Number of sph. ERI's calculated on the fly:                    0
  HFX_MEM_INFO| Total memory consumption ERI's RAM [MiB]:                    929
  HFX_MEM_INFO| Whereof max-vals [MiB]:                                        5
  HFX_MEM_INFO| Total compression factor ERI's RAM:                         2.59
  HFX_MEM_INFO| Total memory consumption ERI's disk [MiB]:                     0
  HFX_MEM_INFO| Total compression factor ERI's disk:                        0.00
  HFX_MEM_INFO| Size of density/Fock matrix [MiB]:                             0
  HFX_MEM_INFO| Size of buffers [MiB]:                                         0
  HFX_MEM_INFO| Est. max. program size after HFX  [MiB]:                     696

     1 OT DIIS     0.15E+00    5.8     0.01447916      -264.0183207331 -2.64E+02
     2 OT DIIS     0.15E+00    1.0     0.00699127      -264.1122638241 -9.39E-02
     3 OT DIIS     0.15E+00    1.0     0.00511662      -264.1312260553 -1.90E-02
     4 OT DIIS     0.15E+00    1.0     0.00097244      -264.1371209740 -5.89E-03
     5 OT DIIS     0.15E+00    1.0     0.00031652      -264.1373120065 -1.91E-04
     6 OT DIIS     0.15E+00    1.0     0.00014471      -264.1373419885 -3.00E-05
     7 OT DIIS     0.15E+00    1.0     0.00005293      -264.1373513415 -9.35E-06
     8 OT DIIS     0.15E+00    1.0     0.00002481      -264.1373521839 -8.42E-07
     9 OT DIIS     0.15E+00    1.0     0.00000865      -264.1373523688 -1.85E-07
    10 OT DIIS     0.15E+00    1.0     0.00000424      -264.1373524008 -3.21E-08
    11 OT DIIS     0.15E+00    1.0     0.00000100      -264.1373524076 -6.79E-09
    12 OT DIIS     0.15E+00    1.0     0.00000055      -264.1373524080 -4.20E-10
    13 OT DIIS     0.15E+00    1.0     0.00000024      -264.1373524081 -5.87E-11
    14 OT DIIS     0.15E+00    1.0     0.00000006      -264.1373524081 -1.24E-11
    15 OT DIIS     0.15E+00    1.0     0.00000003      -264.1373524081  9.95E-12
    16 OT DIIS     0.15E+00    1.0     0.00000002      -264.1373524081  1.46E-11
    17 OT DIIS     0.15E+00    1.0     7.0111E-09      -264.1373524081  1.84E-11

  *** SCF run converged in    17 steps ***


  Electronic density on regular grids:        -30.6575561762       11.3424438238
  Core density on regular grids:               42.0000000000       -0.0000000000
  Hard and soft densities (Lebedev):          -93.3805894220      -82.0381456185
  Total Rho_soft + Rho1_hard - Rho1_soft      -41.9999999797
  Total charge density (r-space):               0.0000000203
  Total Rho_soft + Rho0_soft (g-space):        -0.0000000053

  Overlap energy of the core charge distribution:               0.00000544408814
  Self energy of the core charge distribution:               -217.69203579805162
  Core Hamiltonian energy:                                    -42.40154546898779
  Hartree energy:                                             110.30079239831453
  Exchange-correlation energy:                                -11.08610622577995
  Hartree-Fock Exchange energy:                                -7.01678023171298
  Dispersion energy:                                           -0.00382643669209

  GAPW| Exc from hard and soft atomic rho1:                   -18.54041138640083
  GAPW| local Eh = 1 center integrals:                        -77.69744470285428

  Total energy:                                              -264.13735240807688

  outer SCF iter =    1 RMS gradient =   0.70E-08 energy =       -264.1373524081
  outer SCF loop converged in   1 iterations or   17 steps


 !-----------------------------------------------------------------------------!
                     Mulliken Population Analysis

 #  Atom  Element  Kind  Atomic population                           Net charge
       1     n        1          7.212437                             -0.212437
       2     n        1          7.251623                             -0.251623
       3     c        2          6.010912                             -0.010912
       4     c        2          6.032080                             -0.032080
       5     c        2          6.027182                             -0.027182
       6     c        2          6.036363                             -0.036363
       7     h        3          0.845711                              0.154289
       8     h        3          0.882895                              0.117105
       9     h        3          0.891017                              0.108983
      10     h        3          0.809779                              0.190221
 # Total charge                             42.000000                  0.000000

 !-----------------------------------------------------------------------------!

 !-----------------------------------------------------------------------------!
                           Hirshfeld Charges

  #Atom  Element  Kind  Ref Charge     Population                    Net charge
      1       n      1       7.000          7.328                        -0.328
      2       n      1       7.000          7.372                        -0.372
      3       c      2       6.000          6.306                        -0.306
      4       c      2       6.000          6.346                        -0.346
      5       c      2       6.000          6.321                        -0.321
      6       c      2       6.000          6.314                        -0.314
      7       h      3       1.000          0.495                         0.505
      8       h      3       1.000          0.513                         0.487
      9       h      3       1.000          0.515                         0.485
     10       h      3       1.000          0.479                         0.521

  Total Charge                                                            0.011
 !-----------------------------------------------------------------------------!

 *******************************************************************************
 **                                                                           **
 **         ######## #######   #######   ######## #######  ########           **
 **            ##    ##     ## ##     ## ##       ##   ##     ##              **
 **            ##    ##     ## ##     ## ######   #######     ##              **
 **            ##    ##     ## ##     ## ##       ##          ##              **
 **            ##    #######   #######   ##       ##          ##              **
 **                                                                           **
 *******************************************************************************
 KERNEL|                                                                    FULL
 FUNCTIONAL| BECKE88:
 FUNCTIONAL| A. Becke, Phys. Rev. A 38, 3098 (1988) {LDA version}               
 FUNCTIONAL| LYP:
 FUNCTIONAL| C. Lee, W. Yang, R.G. Parr, Phys. Rev. B, 37, 785 (1988) {LDA versi
 FUNCTIONAL| on}                                                                
 FUNCTIONAL| VWN:
 FUNCTIONAL| S. H. Vosko, L. Wilk and M. Nusair, Can. J. Phys. 58, 1200 (1980) {
 FUNCTIONAL| LDA version}                                                       
 FUNCTIONAL| XALPHA:
 FUNCTIONAL| Dirac/Slater local exchange; parameter=  0.666 {LDA}               
 KERNEL|                                                          Exact Exchange
 KERNEL| Spin symmetry of excitations                                    Singlet
 TDDFPT| Number of states calculated                                           9
 TDDFPT| Number of Davidson iterations                                       100
 TDDFPT| Davidson iteration convergence                                0.367E-09
 TDDFPT| Max. number of Krylov space vectors                                5000
 TDDFPT| Molecular Orbitals:        Spin       AOs       Occ      Virt     Total
 TDDFPT|                               1       210        21       189       210
 
 -------------------------------------------------------------------------------
 -                            TDDFPT Initial Guess                             -
 -------------------------------------------------------------------------------
          State         Occupied      ->      Virtual          Excitation
          number         orbital              orbital          energy (eV)
 -------------------------------------------------------------------------------
             1               21                   22              4.09739
             2               20                   22              4.97821
             3               21                   23              4.99019
             4               19                   22              5.57561
             5               20                   23              5.87100
             6               18                   22              6.28370
             7               19                   23              6.46841
             8               18                   23              7.17650
             9               21                   24              7.49400

      Number of active states:                                       3969
 -------------------------------------------------------------------------------
 
 -------------------------------------------------------------------------------
 -                      TDDFPT WAVEFUNCTION OPTIMIZATION                       -
 -------------------------------------------------------------------------------

          Step            Time         Convergence           Conv. states
 -------------------------------------------------------------------------------

    State    Exc. energy (eV)      Convergence (eV)
        1       2.8619913            -1.2354E+00
        2       3.7023964            -1.2758E+00
        3       3.7418240            -1.2484E+00
        4       4.5587303            -1.0169E+00
        5       5.1403612            -7.3064E-01
        6       6.4000273             1.1633E-01
        7       7.1361324             6.6773E-01
        8       8.8378109             1.6613E+00
        9       9.6643860             2.1704E+00

             1            10.5          7.9760E-02                      0

    State    Exc. energy (eV)      Convergence (eV)
        1       2.8042137            -5.7778E-02
        2       3.6417198            -6.0677E-02
        3       3.6714690            -7.0355E-02
        4       4.4987807            -5.9950E-02
        5       5.0069395            -1.3342E-01
        6       5.9794450            -4.2058E-01
        7       6.3687774            -7.6736E-01
        8       7.4729192            -1.3649E+00
        9       8.0140840            -1.6503E+00

             2            10.5          6.0647E-02                      0

    State    Exc. energy (eV)      Convergence (eV)
        1       2.8017760            -2.4377E-03
        2       3.6387790            -2.9408E-03
        3       3.6681945            -3.2744E-03
        4       4.4961837            -2.5970E-03
        5       4.9997063            -7.2332E-03
        6       5.9517109            -2.7734E-02
        7       6.3210794            -4.7698E-02
        8       6.7124907            -7.6043E-01
        9       6.9550110            -1.0591E+00

             3            10.5          3.8920E-02                      0

    State    Exc. energy (eV)      Convergence (eV)
        1       2.8017123            -6.3639E-05
        2       3.6387105            -6.8496E-05
        3       3.6680873            -1.0721E-04
        4       4.4961139            -6.9845E-05
        5       4.9992885            -4.1778E-04
        6       5.9495799            -2.1310E-03
        7       6.3164315            -4.6479E-03
        8       6.6727580            -3.9733E-02
        9       6.8457845            -1.0923E-01

             4            10.4          4.0140E-03                      0

    State    Exc. energy (eV)      Convergence (eV)
        1       2.8017112            -1.1552E-06
        2       3.6387090            -1.5471E-06
        3       3.6680855            -1.8003E-06
        4       4.4961120            -1.8871E-06
        5       4.9992760            -1.2490E-05
        6       5.9493970            -1.8292E-04
        7       6.3156965            -7.3497E-04
        8       6.6600573            -1.2701E-02
        9       6.8149752            -3.0809E-02

             5            10.5          1.1322E-03                      0

    State    Exc. energy (eV)      Convergence (eV)
        1       2.8017112            -1.3827E-08
        2       3.6387089            -2.1455E-08
        3       3.6680855            -2.3503E-08
        4       4.4961120            -2.6851E-08
        5       4.9992757            -2.7209E-07
        6       5.9493839            -1.3127E-05
        7       6.3156150            -8.1528E-05
        8       6.6531770            -6.8804E-03
        9       6.7604646            -5.4511E-02

             6            10.5          2.0032E-03                      0

    State    Exc. energy (eV)      Convergence (eV)
        1       2.8017112            -1.2711E-10
        2       3.6387089            -1.9391E-10
        3       3.6680855            -2.2245E-10
        4       4.4961120            -4.8798E-10
        5       4.9992757            -4.5154E-09
        6       5.9493835            -4.0202E-07
        7       6.3156125            -2.4947E-06
        8       6.6527653            -4.1169E-04
        9       6.7561737            -4.2909E-03

             7            10.5          1.5769E-04                      5

    State    Exc. energy (eV)      Convergence (eV)
        1       2.8017112            -7.9039E-13
        2       3.6387089            -1.5543E-12
        3       3.6680855            -1.5891E-12
        4       4.4961120            -5.1834E-12
        5       4.9992757            -4.5107E-11
        6       5.9493835            -6.9668E-09
        7       6.3156125            -4.8516E-08
        8       6.6527547            -1.0550E-05
        9       6.7560406            -1.3310E-04

             8            10.4          4.8914E-06                      6

    State    Exc. energy (eV)      Convergence (eV)
        1       2.8017112             9.8185E-15
        2       3.6387089            -4.5316E-15
        3       3.6680855            -7.5527E-15
        4       4.4961120            -2.5679E-14
        5       4.9992757            -2.9682E-13
        6       5.9493835            -9.0370E-11
        7       6.3156125            -8.7323E-10
        8       6.6527545            -2.4161E-07
        9       6.7560379            -2.7021E-06

             9            10.4          9.9300E-08                      7

    State    Exc. energy (eV)      Convergence (eV)
        1       2.8017112            -1.0574E-14
        2       3.6387089            -5.2869E-15
        3       3.6680855            -2.2658E-15
        4       4.4961120            -5.2869E-15
        5       4.9992757            -4.5316E-15
        6       5.9493835            -9.6070E-13
        7       6.3156125            -1.7700E-11
        8       6.6527545            -6.7925E-09
        9       6.7560378            -5.6172E-08

            10            10.5          2.0643E-09                      8

    State    Exc. energy (eV)      Convergence (eV)
        1       2.8017112             1.3217E-14
        2       3.6387089             3.0211E-15
        3       3.6680855            -6.7974E-15
        4       4.4961120             1.1329E-14
        5       4.9992757            -7.5527E-16
        6       5.9493835            -1.0574E-14
        7       6.3156125            -2.2734E-13
        8       6.6527545            -1.3583E-10
        9       6.7560378            -1.4625E-09

            11            10.4          5.3745E-11                      9
 ------------------------- Restart Davidson iterations -------------------------

    State    Exc. energy (eV)      Convergence (eV)
        1       2.8017112            -4.9092E-15
        2       3.6387089             1.5105E-15
        3       3.6680855             9.8185E-15
        4       4.4961120            -8.3079E-15
        5       4.9992757             5.2869E-15
        6       5.9493835            -7.5527E-16
        7       6.3156125            -7.5527E-16
        8       6.6527545             5.7400E-14
        9       6.7560378             3.7763E-15

            12            10.4          2.1094E-15                      9
 
 -------------------------------------------------------------------------------
 -  TDDFPT run converged in 12 iteration(s) 
 -------------------------------------------------------------------------------

 R-TDDFPT states of multiplicity 1
 Transition dipoles calculated using length formulation

         State    Excitation        Transition dipole (a.u.)        Oscillator
         number   energy (eV)       x           y           z     strength (a.u.)
         ------------------------------------------------------------------------
 TDDFPT|      1       2.80171   8.0806E-02 -8.8357E-02 -1.3788E-01   2.28898E-03
 TDDFPT|      2       3.63871  -2.4772E-02 -1.6801E-01 -1.9278E-02   2.60422E-03
 TDDFPT|      3       3.66809  -1.5408E-01 -5.0551E-02  6.6381E-02   2.75908E-03
 TDDFPT|      4       4.49611   4.5483E-02 -1.1956E-02  1.1033E-02   2.57024E-04
 TDDFPT|      5       4.99928   1.9374E-02  6.2036E-02  6.0584E-01   4.54726E-02
 TDDFPT|      6       5.94938  -2.4115E-02  2.5999E-01  6.3384E-01   6.84951E-02
 TDDFPT|      7       6.31561  -1.2431E-01 -1.6779E-01  2.7849E-01   1.87472E-02
 TDDFPT|      8       6.65275  -2.2952E-03  4.4822E-01 -1.0419E-01   3.45156E-02
 TDDFPT|      9       6.75604  -1.1057E-03 -9.0886E-01  2.4229E-01   1.46439E-01

 TDDFPT : CheckSum  =  0.575145E+00
 
 -------------------------------------------------------------------------------
 -                            Excitation analysis                              -
 -------------------------------------------------------------------------------
        State             Occupied              Virtual             Excitation
        number             orbital              orbital             amplitude
 -------------------------------------------------------------------------------
             1   2.80171 eV
                                21                   22              -0.989328
                                19                   22               0.096353
                                20                   22               0.050630
             2   3.63871 eV
                                20                   22              -0.947201
                                21                   23               0.259730
                                18                   22               0.123707
                                19                   23              -0.072521
                                21                   24              -0.056159
             3   3.66809 eV
                                21                   23               0.952739
                                20                   22               0.258871
                                19                   23              -0.107811
                                18                   23              -0.073784
             4   4.49611 eV
                                20                   23              -0.961776
                                19                   22               0.171778
                                18                   22               0.168486
                                19                   23               0.069871
                                20                   22               0.052268
             5   4.99928 eV
                                19                   22               0.715481
                                18                   23              -0.412191
                                18                   22               0.399403
                                19                   23               0.300222
                                20                   23               0.196532
                                21                   24               0.087814
                                17                   22              -0.068515
                                21                   22               0.064142
             6   5.94938 eV
                                18                   22              -0.569348
                                19                   23              -0.541838
                                19                   22               0.470690
                                21                   24               0.251048
                                17                   22              -0.169723
                                21                   23              -0.067558
                                20                   23              -0.065825
                                21                   25               0.057998
                                18                   23              -0.056686
             7   6.31561 eV
                                21                   24              -0.837378
                                18                   22              -0.331565
                                21                   25               0.255056
                                18                   23              -0.233705
                                21                   26               0.133656
                                19                   23               0.122551
                                19                   22               0.098715
                                21                   28               0.059612
             8   6.65275 eV
                                21                   25              -0.754880
                                19                   23              -0.384337
                                21                   24              -0.315728
                                18                   23              -0.253144
                                21                   26              -0.160612
                                18                   22               0.152664
                                20                   25              -0.110474
                                17                   22               0.099439
                                17                   23               0.092340
                                16                   22               0.059932
                                19                   24              -0.058906
                                21                   23              -0.050580
             9   6.75604 eV
                                21                   25              -0.517875
                                19                   23               0.502457
                                18                   22              -0.420355
                                20                   24              -0.285976
                                17                   23              -0.201404
                                21                   26               0.189233
                                20                   25               0.181444
                                21                   24               0.158920
                                20                   22              -0.088570
                                18                   23              -0.083123
                                17                   22              -0.080623
                                21                   23               0.072389
                                20                   23              -0.060031
                                21                   28              -0.054843
                                20                   29              -0.053916
 -------------------------------------------------------------------------------
 
 -------------------------------------------------------------------------------
 -                            Natural Orbital analysis                         -
 -------------------------------------------------------------------------------
   STATE NR.      1             2.80171 eV
     Particle-Hole state: 1   Spin:1     Eigenvalue: 0.99328   Sum Eigv: 0.99328
   STATE NR.      2             3.63871 eV
     Particle-Hole state: 1   Spin:1     Eigenvalue: 0.91751   Sum Eigv: 0.91751
     Particle-Hole state: 2   Spin:1     Eigenvalue: 0.08077   Sum Eigv: 0.99828
   STATE NR.      3             3.66809 eV
     Particle-Hole state: 1   Spin:1     Eigenvalue: 0.92693   Sum Eigv: 0.92693
     Particle-Hole state: 2   Spin:1     Eigenvalue: 0.07135   Sum Eigv: 0.99829
   STATE NR.      4             4.49611 eV
     Particle-Hole state: 1   Spin:1     Eigenvalue: 0.93531   Sum Eigv: 0.93531
     Particle-Hole state: 2   Spin:1     Eigenvalue: 0.06039   Sum Eigv: 0.99571
   STATE NR.      5             4.99928 eV
     Particle-Hole state: 1   Spin:1     Eigenvalue: 0.69084   Sum Eigv: 0.69084
     Particle-Hole state: 2   Spin:1     Eigenvalue: 0.29202   Sum Eigv: 0.98286
   STATE NR.      6             5.94938 eV
     Particle-Hole state: 1   Spin:1     Eigenvalue: 0.71148   Sum Eigv: 0.71148
     Particle-Hole state: 2   Spin:1     Eigenvalue: 0.18292   Sum Eigv: 0.89439
[...]
  total size                         1.158578E+09
  min size                           0.000000E+00
  max size                          31.744000E+03
  average size                       7.701669E+03
 MPI breakdown and total messages size (bytes):
             size <=      128               83715                        0
       128 < size <=     8192               12159                 83456856
      8192 < size <=    32768               54558               1075120704
     32768 < size <=   131072                   0                        0
    131072 < size <=  4194304                   0                        0
   4194304 < size <= 16777216                   0                        0
  16777216 < size                               0                        0
 -------------------------------------------------------------------------------
 -                                                                             -
 -                      DBCSR MESSAGE PASSING PERFORMANCE                      -
 -                                                                             -
 -------------------------------------------------------------------------------
 ROUTINE             CALLS      AVE VOLUME [Bytes]
 MP_Bcast               28                     12.
 MP_Allreduce         6693                      8.
 MP_Alltoall         26498                   2774.
 MP_ISend            25068                   3615.
 MP_IRecv            25068                   3332.
 -------------------------------------------------------------------------------

 -------------------------------------------------------------------------------
 -                                                                             -
 -                                DBM STATISTICS                               -
 -                                                                             -
 -------------------------------------------------------------------------------
    M  x    N  x    K                                          COUNT     PERCENT
 -------------------------------------------------------------------------------

 -------------------------------------------------------------------------------
 -                                                                             -
 -                                GRID STATISTICS                              -
 -                                                                             -
 -------------------------------------------------------------------------------
 LP    KERNEL             BACKEND                              COUNT     PERCENT
 1     collocate ortho    CPU                                 254406      15.62%
 2     collocate ortho    CPU                                 207754      12.76%
 1     integrate ortho    CPU                                 204870      12.58%
 0     collocate ortho    CPU                                 176580      10.84%
 2     integrate ortho    CPU                                 171346      10.52%
 3     collocate ortho    CPU                                 139956       8.59%
 0     integrate ortho    CPU                                 137700       8.45%
 3     integrate ortho    CPU                                 116764       7.17%
 4     collocate ortho    CPU                                  60168       3.69%
 4     integrate ortho    CPU                                  52056       3.20%
 4     collocate general  CPU                                  21120       1.30%
 5     collocate ortho    CPU                                  18312       1.12%
 5     integrate ortho    CPU                                  16488       1.01%
 4     integrate general  CPU                                  16320       1.00%
 2     collocate general  CPU                                  14080       0.86%
 2     integrate general  CPU                                  10880       0.67%
 6     collocate ortho    CPU                                   4578       0.28%
 6     integrate ortho    CPU                                   4242       0.26%
 5     integrate general  CPU                                    384       0.02%
 3     integrate general  CPU                                    256       0.02%
 7     integrate ortho    CPU                                    168       0.01%
 0     collocate general  CPU                                    160       0.01%
 0     integrate general  CPU                                    160       0.01%
 -------------------------------------------------------------------------------

 MEMORY| Estimated peak process memory [MiB]                                1285

 -------------------------------------------------------------------------------
 ----                             MULTIGRID INFO                            ----
 -------------------------------------------------------------------------------
 count for grid        1:         109537          cutoff [a.u.]          200.00
 count for grid        2:          22507          cutoff [a.u.]           66.67
 count for grid        3:           8627          cutoff [a.u.]           22.22
 count for grid        4:           1858          cutoff [a.u.]            7.41
 total gridlevel count  :         142529

 -------------------------------------------------------------------------------
 -                                                                             -
 -                         MESSAGE PASSING PERFORMANCE                         -
 -                                                                             -
 -------------------------------------------------------------------------------

 ROUTINE             CALLS      AVE VOLUME [Bytes]
 MP_Group                5
 MP_Bcast             5042                 932654.
 MP_Allreduce        15773                 139765.
 MP_Sync              1483
 MP_Alltoall          4340               15008960.
 MP_SendRecv          9870                 234004.
 MP_ISendRecv        16635                 125167.
 MP_Wait             35025
 MP_comm_split          50
 MP_ISend            15847                 822521.
 MP_IRecv            16016                 813494.
 -------------------------------------------------------------------------------


 -------------------------------------------------------------------------------
 -                                                                             -
 -                           R E F E R E N C E S                               -
 -                                                                             -
 -------------------------------------------------------------------------------
 
 CP2K version 2024.1 (Development Version), the CP2K developers group (2024).
 CP2K is freely available from https://www.cp2k.org/ .

 Kuehne,Thomas D.; Iannuzzi,Marcella; Del Ben,Mauro;
 Rybkin,Vladimir V.; Seewald,Patrick; Stein,Frederick; Laino,Teodoro;
 Khaliullin,Rustam Z.; Schuett,Ole; Schiffmann,Florian; Golze,Dorothea;
 Wilhelm,Jan; Chulkov,Sergey; Bani-Hashemian,Mohammad Hossein;
 Weber,Valery; Borstnik,Urban; Taillefumier,Mathieu;
 Jakobovits,Alice Shoshana; Lazzaro,Alfio; Pabst,Hans; Mueller,Tiziano;
 Schade,Robert; Guidon,Manuel; Andermatt,Samuel; Holmberg,Nico;
 Schenter,Gregory K.; Hehn,Anna; Bussy,Augustin; Belleflamme,Fabian;
 Tabacchi,Gloria; Gloess,Andreas; Lass,Michael; Bethune,Iain;
 Mundy,Christopher J.; Plessl,Christian; Watkins,Matt;
 VandeVondele,Joost; Krack,Matthias; Hutter,Juerg. 
 The Journal of Chemical Physics, 152 (19), (2020). 
 CP2K: An electronic structure and molecular dynamics software package -
 Quickstep: Efficient and accurate electronic structure calculations.
 https://doi.org/10.1063/5.0007045

 Goerigk, Lars; Hansen, Andreas; Bauer, Christoph; Ehrlich, Stephan;
 Najibi, Asim; Grimme, Stefan. , 19 (48), (2017). 
 A look at the density functional theory zoo with the advanced GMTKN55 database
 for general main group thermochemistry, kinetics and noncovalent interactions.
 https://doi.org/10.1039/C7CP04913G

 Schuett, Ole; Messmer, Peter; Hutter, Juerg; VandeVondele, Joost. 
 Electronic Structure Calculations on Graphics Processing Units, John
 Wiley & Sons, Ltd, 173-190 (2016). 
 GPU-Accelerated Sparse Matrix-Matrix Multiplication for
 Linear Scaling Density Functional Theory.
 https://doi.org/10.1002/9781118670712.ch8

 Heinecke, A; Henry, G; Hutchinson, M; Pabst, H. 
 Proceedings of Intl. Supercomputing Conference, 981-991 (2016). 
 LIBXSMM: Accelerating Small Matrix Multiplications
 by Runtime Code Generation.
 https://doi.org/10.1109/SC.2016.83

 Borstnik, U; VandeVondele, J; Weber, V; Hutter, J. 
 PARALLEL COMPUTING, 40 (5-6), 47-58 (2014). 
 Sparse matrix multiplication: The distributed block-compressed sparse
 row library.
 https://doi.org/10.1016/j.parco.2014.03.012

 Hutter, J; Iannuzzi, M; Schiffmann, F; VandeVondele, J. 
 WIREs Comput Mol Sci., 4 (1), 15-25 (2014). 
 CP2K: atomistic simulations of condensed matter systems.
 https://doi.org/10.1002/wcms.1159

 Grimme, S; Ehrlich, S; Goerigk, L. 
 JOURNAL OF COMPUTATIONAL CHEMISTRY, 32, 1456 (2011). 
 Effect of the damping function in dispersion corrected density functional theory.
 https://doi.org/10.1002/jcc.21759

 Grimme, S; Antony, J; Ehrlich, S; Krieg, H. 
 JOURNAL OF CHEMICAL PHYSICS, 132 (15), 154104 (2010). 
 A consistent and accurate ab initio parametrization of density
 functional dispersion correction (DFT-D) for the 94 elements H-Pu.
 https://doi.org/10.1063/1.3382344

 Guidon, M; Hutter, J; VandeVondele, J. 
 JOURNAL OF CHEMICAL THEORY AND COMPUTATION, 5 (11), 3010-3021 (2009). 
 Robust Periodic Hartree-Fock Exchange for Large-Scale Simulations Using
 Gaussian Basis Sets.
 https://doi.org/10.1021/ct900494g

 Guidon, M; Schiffmann, F; Hutter, J; VandeVondele, J. 
 JOURNAL OF CHEMICAL PHYSICS, 128 (21), 214104 (2008). 
 Ab initio molecular dynamics using hybrid density functionals.
 https://doi.org/10.1063/1.2931945

 VandeVondele, J; Hutter, J. 
 JOURNAL OF CHEMICAL PHYSICS, 127 (11), 114105 (2007). 
 Gaussian basis sets for accurate calculations on molecular systems in
 gas and condensed phases.
 https://doi.org/10.1063/1.2770708

 Frigo, M; Johnson, SG. 
 PROCEEDINGS OF THE IEEE, 93 (2), 216-231 (2005). 
 The design and implementation of FFTW3.
 https://doi.org/10.1109/JPROC.2004.840301

 Iannuzzi, M; Chassaing, T; Wallman, T; Hutter, J. 
 CHIMIA, 59 (7-8), 499-503 (2005). 
 Ground and excited state density functional calculations with the
 Gaussian and augmented-plane-wave method.
 https://doi.org/10.2533/000942905777676164

 VandeVondele, J; Hutter, J. 
 JOURNAL OF CHEMICAL PHYSICS, 118 (10), 4365-4369 (2003). 
 An efficient orbital transformation method for electronic structure
 calculations.
 https://doi.org/10.1063/1.1543154

 Martin,Richard L.. 
 The Journal of Chemical Physics, 118 (11), 4775-4777 (2003). 
 Natural transition orbitals.
 https://doi.org/10.1063/1.1558471

 Lippert, G; Hutter, J; Parrinello, M. 
 THEORETICAL CHEMISTRY ACCOUNTS, 103 (2), 124-140 (1999). 
 The Gaussian and augmented-plane-wave density functional method for ab
 initio molecular dynamics simulations.
 https://doi.org/10.1007/s002140050523

 Krack, M; Parrinello, M. 
 PHYSICAL CHEMISTRY CHEMICAL PHYSICS, 2 (10), 2105-2112 (2000). 
 All-electron ab-initio molecular dynamics.
 https://doi.org/10.1039/b001167n

 Martyna, GJ; Tuckerman, ME. 
 JOURNAL OF CHEMICAL PHYSICS, 110 (6), 2810-2821 (1999). 
 A reciprocal space based method for treating long range interactions in
 ab initio and force-field-based calculations in clusters.
 https://doi.org/10.1063/1.477923

 BECKE, AD. PHYSICAL REVIEW A, 38 (6), 3098-3100 (1988). 
 DENSITY-FUNCTIONAL EXCHANGE-ENERGY APPROXIMATION WITH CORRECT
 ASYMPTOTIC-BEHAVIOR.
 https://doi.org/10.1103/PhysRevA.38.3098

 LEE, CT; YANG, WT; PARR, RG. 
 PHYSICAL REVIEW B, 37 (2), 785-789 (1988). 
 DEVELOPMENT OF THE COLLE-SALVETTI CORRELATION-ENERGY FORMULA INTO A
 FUNCTIONAL OF THE ELECTRON-DENSITY.
 https://doi.org/10.1103/PhysRevB.37.785

 VOSKO, SH; WILK, L; NUSAIR, M. 
 CANADIAN JOURNAL OF PHYSICS, 58 (8), 1200-1211 (1980). 
 ACCURATE SPIN-DEPENDENT ELECTRON LIQUID CORRELATION ENERGIES FOR LOCAL
 SPIN-DENSITY CALCULATIONS - A CRITICAL ANALYSIS.
 https://doi.org/10.1139/p80-159


 -------------------------------------------------------------------------------
 -                                                                             -
 -                                T I M I N G                                  -
 -                                                                             -
 -------------------------------------------------------------------------------
 SUBROUTINE                       CALLS  ASD         SELF TIME        TOTAL TIME
                                MAXIMUM       AVERAGE  MAXIMUM  AVERAGE  MAXIMUM
 CP2K                                 1  1.0    0.011    0.014  281.129  281.129
 qs_forces                            1  2.0    0.000    0.001  280.136  280.136
 qs_energies                          1  3.0    0.000    0.000  183.839  183.840
 qs_energies_properties               1  4.0    0.000    0.000  161.479  161.479
 tddfpt                               1  5.0    0.000    0.000  161.479  161.479
 tddfpt_energies                      1  6.0    0.000    0.000  126.236  126.236
 tddfpt_davidson_solver               2  7.0    0.002    0.003  125.503  125.503
 tddfpt_compute_Aop_evects           12  8.0    0.000    0.000  125.107  125.107
 excited_state_energy                 2  3.5    0.001    0.002   83.508   83.509
 fft_wrap_pw1pw2                   3924 12.1    0.043    0.052   75.856   80.192
 fhxc_kernel                         12  9.0    0.004    0.004   79.858   79.858
 fft_wrap_pw1pw2_200               2735 13.4    2.323    2.402   73.520   78.048
 integrate_four_center              281 10.6    0.059    0.063   63.046   63.056
 response_equation                    1  4.0    0.000    0.000   62.536   62.536
 linres_solver                        1  5.0    0.001    0.003   62.502   62.502
 apply_op                            44  6.0    0.001    0.001   62.428   62.428
 fft3d_ps                          3924 14.1   31.577   33.479   55.623   59.986
 integrate_four_center_main         281 11.6    0.025    0.035   58.241   59.795
 integrate_four_center_bin        26695 12.6   58.217   59.768   58.217   59.768
 derivatives_four_center              4  8.5    0.004    0.007   48.645   49.896
 derivatives_four_center_main         4  9.5    0.000    0.001   48.557   49.808
 derivatives_four_center_bin        416 10.5   46.135   49.003   46.135   49.003
 tddfpt_apply_hfx                    12  9.0    0.002    0.002   45.131   45.131
 tddft_hfx_matrix                   216 10.0    0.005    0.005   44.677   44.678
 xc_pw_derive                      1422 12.4    0.012    0.012   42.462   44.409
 apply_op_2_dft                      43  7.0    0.003    0.003   36.647   36.735
 prepare_gapw_den                   224  8.8    0.005    0.006   35.898   36.058
 tddfpt_forces_main                   1  6.0    0.000    0.000   35.163   35.163
 tddfpt_forces                        1  7.0    0.000    0.000   33.837   33.837
 tddfpt_force_direct                  1  8.0    0.000    0.000   33.223   33.224
 tddfpt_kernel_force                  1  9.0    0.000    0.000   33.215   33.215
 fhxc_force                           1 10.0    0.001    0.001   33.215   33.215
 rebuild_ks_matrix                   18  6.8    0.000    0.000   32.674   32.674
 qs_ks_build_kohn_sham_matrix        18  7.8    0.003    0.003   32.674   32.674
 xc_pw_divergence                   214 12.3    0.005    0.006   26.026   28.000
 tddfpt_apply_xc_analytic           108 10.0    1.250    1.392   25.176   25.347
 calculate_rho_elec                 218  9.6    0.359    0.382   24.015   24.021
 qs_rho_update_rho_low              213  8.6    0.002    0.002   23.988   23.990
 scf_env_do_scf                       1  4.0    0.000    0.000   22.155   22.155
 mp_alltoall_z22v                  3924 16.1   13.144   21.347   13.144   21.347
 response_force                       1  4.0    0.005    0.007   20.971   20.971
 calculate_rho0_atom                660  9.8   19.662   20.895   19.662   20.895
 qs_fxc_analytic                     44  8.0    0.002    0.002   20.274   20.366
 hfx_ks_matrix                       18  8.8    0.001    0.001   20.350   20.350
 xc_calc_2nd_deriv_analytical       797 11.1    1.685    1.873   20.032   20.287
 qs_ks_update_qs_env                 19  6.0    0.000    0.000   19.944   19.945
 density_rs2pw                      218 10.6    0.009    0.009   18.761   19.607
 xc_rho_set_and_dset_create         107 12.1    1.949    2.230   16.335   19.555
 yz_to_x                           2003 15.3    4.472    4.925   13.088   17.810
 integrate_v_rspace                 178  9.4    0.004    0.004   17.073   17.809
 qs_vxc_create                       61 11.7    0.001    0.001   17.050   17.060
 xc_vxc_pw_create                    61 12.7    0.175    0.187   17.049   17.059
 scf_env_do_scf_inner_loop           17  5.0    0.000    0.001   16.382   16.383
 tddfpt_apply_coulomb               108 10.0    0.002    0.002   13.441   15.062
 xc_calc_2nd_deriv                   45  8.9    0.506    0.573   12.877   14.731
 x_to_yz                           1921 15.0    6.368    7.133   10.896   13.118
 qs_ks_update_qs_env_forces           1  3.0    0.000    0.000   12.731   12.731
 potential_pw2rs                    178 10.4    0.018    0.019   11.673   12.411
 qs_fgxc_gdiff                        1 11.0    0.000    0.000   11.956   11.957
 qs_fxc_fdiff                         7 12.0    0.001    0.001   11.926   11.928
 put_rho0_on_grid                   220  9.8    0.402    0.449   10.250   10.443
 transfer_rs2pw                    1093 11.4    0.012    0.014    9.212   10.124
 xc_prep_2nd_deriv                   46  8.9    0.000    0.000    8.010    9.588
 pw_gather_p                       2003 14.3    8.660    9.118    8.660    9.118
 apply_hfx                           43  7.0    0.001    0.001    8.995    9.002
 hfx_matrix                          43  8.0    0.001    0.001    8.991    8.998
 transfer_rs2pw_200                 439 12.2    3.525    3.640    7.267    8.264
 integrate_vhg0_rspace              174  9.9    1.892    2.020    8.093    8.104
 pw_poisson_solve                   175  9.9    0.003    0.004    6.204    7.928
 transfer_pw2rs                     887 11.3    0.008    0.009    7.786    7.827
 mp_sum_d                          2297  9.2    4.678    7.351    4.678    7.351
 xc_functional_eval                3324 11.9    0.004    0.007    3.800    6.934
 pw_scatter_p                      1921 14.0    6.396    6.511    6.396    6.511
 mp_waitany                       15840 13.2    5.356    6.418    5.356    6.418
 grid_collocate_task_list           218 10.6    4.521    6.270    4.521    6.270
 transfer_pw2rs_200                 353 12.2    3.006    3.071    6.021    6.119
 mp_sum_dv                         6855 10.5    2.649    5.903    2.649    5.903
 init_scf_loop                        1  5.0    0.000    0.000    5.772    5.772
 -------------------------------------------------------------------------------

 The number of warnings for this run is : 0
 
 -------------------------------------------------------------------------------
  **** **** ******  **  PROGRAM ENDED AT                 2025-01-09 12:30:23.054
 ***** ** ***  *** **   PROGRAM RAN ON                               nesh-clk416
 **    ****   ******    PROGRAM RAN BY                                  suphc356
 ***** **    ** ** **   PROGRAM PROCESS ID                               3008418
  **** **  *******  **  PROGRAM STOPPED IN /gxfs_work/cau/suphc356/NEWTONX_proje
                                           ct/Pyrazin_molecule/CP2K_GAPW_B3LYP_d
                                           ef2_TZVP/MOLDYN_BA_again/TRAJECTORIES
                                           /TRAJ191/TEMP
