
 *******************************************************************************
 *   ___                                                                       *
 *  /   \                                                                      *
 * [ABORT]                                                                     *
 *  \___/   An integer type object was expected, found <N>, File: '', Line: 1, *
 *    |                            Column: , Chunk: <N>                        *
 *  O/|                                                                        *
 * /| |                                                                        *
 * / \                                          input/cp_parser_methods.F:1014 *
 *******************************************************************************


 ===== Routine Calling Stack ===== 

            5 read_coordinate_xyz
            4 coordinate_control_READ_COORDINATE
            3 coordinate_control
            2 topology_control
            1 CP2K
(U)
 DBCSR| Communication thread load                                             83 (D)
 DBCSR| MPI: My process id                                                     0
 DBCSR| MPI: Number of processes                                              64
 DBCSR| OMP: Current number of threads                                         2
 DBCSR| OMP: Max number of threads                                             2
 DBCSR| Split modifier for TAS multiplication algorithm                  1.0E+00 (U)


  **** **** ******  **  PROGRAM STARTED AT               2024-10-01 09:48:21.426
 ***** ** ***  *** **   PROGRAM STARTED ON                           nesh-srp318
 **    ****   ******    PROGRAM STARTED BY                              suphc356
 ***** **    ** ** **   PROGRAM PROCESS ID                               1711262
  **** **  *******  **  PROGRAM STARTED IN /gxfs_work/cau/suphc356/NEWTONX_proje
                                           ct/Pyrazin_crystal/plain_pyrazine/CP2
                                           K_GPW_PBE_MOLOPT_TZVP/FINAL_IC_TDDFT_
                                           80_states_6_second/JOB_AD/vib

 CP2K| version string:                 CP2K version 2024.1 (Development Version)
 CP2K| source code revision number:                                  git:990486a
 CP2K| cp2kflags: omp libint fftw3 libxc libgrpp parallel mpi_f08 scalapack cosm
 CP2K|            a xsmm spglib mkl
 CP2K| is freely available from                            https://www.cp2k.org/
 CP2K| Program compiled at                          Mon Mar 11 08:48:45 CET 2024
 CP2K| Program compiled on                                           nesh-login2
 CP2K| Program compiled for                                                local
 CP2K| Data directory path                 /gxfs_work/cau/suphc356/cp2k_gcc/data
 CP2K| Input file name                                                  cp2k.inp

 GLOBAL| Force Environment number                                              1
 GLOBAL| Basis set file name                                        BASIS_MOLOPT
 GLOBAL| Potential file name                                           POTENTIAL
 GLOBAL| MM Potential file name                                     MM_POTENTIAL
 GLOBAL| Coordinate file name                      pyrazine_crystal_pbe_tzvp.xyz
 GLOBAL| Method name                                                        CP2K
 GLOBAL| Project name                                               testsuite_ad
 GLOBAL| Run type                                           VIBRATIONAL_ANALYSIS
 GLOBAL| FFT library                                                       FFTW3
 GLOBAL| Diagonalization library                                       ScaLAPACK
 GLOBAL| DGEMM library                                                      BLAS
 GLOBAL| Orthonormality check for eigenvectors                          DISABLED
 GLOBAL| Matrix multiplication library                                     COSMA
 GLOBAL| All-to-all communication in single precision                          F
 GLOBAL| FFTs using library dependent lengths                                  F
 GLOBAL| Grid backend                                                       AUTO
 GLOBAL| Global print level                                               MEDIUM
 GLOBAL| MPI I/O enabled                                                       T
 GLOBAL| Total number of message passing processes                            64
 GLOBAL| Number of threads for this process                                    2
 GLOBAL| This output is from process                                           0
 GLOBAL| Stack size for threads created by OpenMP (OMP_STACKSIZE)           256M
 GLOBAL| CPU model name                              Intel(R) Xeon(R) Gold 6426Y
 GLOBAL| CPUID                                                              1003
 GLOBAL| Compiled for CPUID                                                    0

 *** HINT in environment.F:920 :: The compiler target flags (generic) used ***
 *** to build this binary cannot exploit all extensions of this CPU model  ***
 *** (x86_avx512). Consider compiler target flags as part of FCFLAGS and   ***
 *** CFLAGS (ARCH file).                                                   ***


 MEMORY| system memory details [Kb]
 MEMORY|                        rank 0           min           max       average
 MEMORY| MemTotal            263786136     263786128     263786136     263786134
 MEMORY| MemFree             245657128     245657128     246974200     246435705
 MEMORY| Buffers               1148924        293912       1148924        857233
 MEMORY| Cached                 784468        661424        878500        768930
 MEMORY| Slab                  1945352        900544       1945352       1502155
 MEMORY| SReclaimable           324100        148444        324100        237027
 MEMORY| MemLikelyFree       247914620     247914620     248909372     248298895


 *** Fundamental physical constants (SI units) ***

 *** Literature: B. J. Mohr and B. N. Taylor,
 ***             CODATA recommended values of the fundamental physical
 ***             constants: 2006, Web Version 5.1
 ***             http://physics.nist.gov/constants

 Speed of light in vacuum [m/s]                             2.99792458000000E+08
 Magnetic constant or permeability of vacuum [N/A**2]       1.25663706143592E-06
 Electric constant or permittivity of vacuum [F/m]          8.85418781762039E-12
 Planck constant (h) [J*s]                                  6.62606896000000E-34
 Planck constant (h-bar) [J*s]                              1.05457162825177E-34
 Elementary charge [C]                                      1.60217648700000E-19
 Electron mass [kg]                                         9.10938215000000E-31
 Electron g factor [ ]                                     -2.00231930436220E+00
 Proton mass [kg]                                           1.67262163700000E-27
 Fine-structure constant                                    7.29735253760000E-03
 Rydberg constant [1/m]                                     1.09737315685270E+07
 Avogadro constant [1/mol]                                  6.02214179000000E+23
 Boltzmann constant [J/K]                                   1.38065040000000E-23
 Atomic mass unit [kg]                                      1.66053878200000E-27
 Bohr radius [m]                                            5.29177208590000E-11

 *** Conversion factors ***

 [u] -> [a.u.]                                              1.82288848426455E+03
 [Angstrom] -> [Bohr] = [a.u.]                              1.88972613288564E+00
 [a.u.] = [Bohr] -> [Angstrom]                              5.29177208590000E-01
 [a.u.] -> [s]                                              2.41888432650478E-17
 [a.u.] -> [fs]                                             2.41888432650478E-02
 [a.u.] -> [J]                                              4.35974393937059E-18
 [a.u.] -> [N]                                              8.23872205491840E-08
 [a.u.] -> [K]                                              3.15774647902944E+05
 [a.u.] -> [kJ/mol]                                         2.62549961709828E+03
 [a.u.] -> [kcal/mol]                                       6.27509468713739E+02
 [a.u.] -> [Pa]                                             2.94210107994716E+13
 [a.u.] -> [bar]                                            2.94210107994716E+08
 [a.u.] -> [atm]                                            2.90362800883016E+08
 [a.u.] -> [eV]                                             2.72113838565563E+01
 [a.u.] -> [Hz]                                             6.57968392072181E+15
 [a.u.] -> [1/cm] (wave numbers)                            2.19474631370540E+05
 [a.u./Bohr**2] -> [1/cm]                                   5.14048714338585E+03
 

 CELL_TOP| Volume [angstrom^3]:                                       424.784591
 CELL_TOP| Vector a [angstrom    11.252     0.000     0.000   |a| =    11.252000
 CELL_TOP| Vector b [angstrom     0.000     3.831     0.000   |b| =     3.831200
 CELL_TOP| Vector c [angstrom    -5.053     0.000     9.854   |c| =    11.074000
 CELL_TOP| Angle (b,c), alpha [degree]:                                90.000000
 CELL_TOP| Angle (a,c), beta  [degree]:                               117.150000
 CELL_TOP| Angle (a,b), gamma [degree]:                                90.000000
 CELL_TOP| Numerically orthorhombic:                                          NO
 CELL_TOP| Periodicity                                                       XYZ

 *******************************************************************************
 *   ___                                                                       *
 *  /   \                                                                      *
 * [ABORT]                                                                     *
 *  \___/          An integer type object was expected, found <N>, File:       *
 *    |       'pyrazine_crystal_pbe_tzvp.xyz', Line: 1, Column: , Chunk: <N>   *
 *  O/|                                                                        *
 * /| |                                                                        *
 * / \                                          input/cp_parser_methods.F:1014 *
 *******************************************************************************


 ===== Routine Calling Stack ===== 

            5 read_coordinate_xyz
            4 coordinate_control_READ_COORDINATE
            3 coordinate_control
            2 topology_control
            1 CP2K
 DBCSR| CPU Multiplication driver                                           XSMM (U)
 DBCSR| Multrec recursion limit                                              512 (U)
 DBCSR| Multiplication stack size                                           1000 (D)
 DBCSR| Maximum elements for images                                    UNLIMITED (U)
 DBCSR| Multiplicative factor virtual images                                   1 (U)
 DBCSR| Use multiplication densification                                       T (D)
 DBCSR| Multiplication size stacks                                             3 (U)
 DBCSR| Use memory pool for CPU allocation                                     F (U)
 DBCSR| Number of 3D layers                                               SINGLE (U)
 DBCSR| Use MPI memory allocation                                              F (U)
 DBCSR| Use RMA algorithm                                                      F (U)
 DBCSR| Use Communication thread                                               T (U)
 DBCSR| Communication thread load                                             83 (D)
 DBCSR| MPI: My process id                                                     0
 DBCSR| MPI: Number of processes                                              64
 DBCSR| OMP: Current number of threads                                         2
 DBCSR| OMP: Max number of threads                                             2
 DBCSR| Split modifier for TAS multiplication algorithm                  1.0E+00 (U)


  **** **** ******  **  PROGRAM STARTED AT               2024-10-01 09:52:14.391
 ***** ** ***  *** **   PROGRAM STARTED ON                           nesh-srp324
 **    ****   ******    PROGRAM STARTED BY                              suphc356
 ***** **    ** ** **   PROGRAM PROCESS ID                               3573290
  **** **  *******  **  PROGRAM STARTED IN /gxfs_work/cau/suphc356/NEWTONX_proje
                                           ct/Pyrazin_crystal/plain_pyrazine/CP2
                                           K_GPW_PBE_MOLOPT_TZVP/FINAL_IC_TDDFT_
                                           80_states_6_second/JOB_AD/vib

 CP2K| version string:                 CP2K version 2024.1 (Development Version)
 CP2K| source code revision number:                                  git:990486a
 CP2K| cp2kflags: omp libint fftw3 libxc libgrpp parallel mpi_f08 scalapack cosm
 CP2K|            a xsmm spglib mkl
 CP2K| is freely available from                            https://www.cp2k.org/
 CP2K| Program compiled at                          Mon Mar 11 08:48:45 CET 2024
 CP2K| Program compiled on                                           nesh-login2
 CP2K| Program compiled for                                                local
 CP2K| Data directory path                 /gxfs_work/cau/suphc356/cp2k_gcc/data
 CP2K| Input file name                                                  cp2k.inp

 GLOBAL| Force Environment number                                              1
 GLOBAL| Basis set file name                                        BASIS_MOLOPT
 GLOBAL| Potential file name                                           POTENTIAL
 GLOBAL| MM Potential file name                                     MM_POTENTIAL
 GLOBAL| Coordinate file name                                      __STD_INPUT__
 GLOBAL| Method name                                                        CP2K
 GLOBAL| Project name                                               testsuite_ad
 GLOBAL| Run type                                           VIBRATIONAL_ANALYSIS
 GLOBAL| FFT library                                                       FFTW3
 GLOBAL| Diagonalization library                                       ScaLAPACK
 GLOBAL| DGEMM library                                                      BLAS
 GLOBAL| Orthonormality check for eigenvectors                          DISABLED
 GLOBAL| Matrix multiplication library                                     COSMA
 GLOBAL| All-to-all communication in single precision                          F
 GLOBAL| FFTs using library dependent lengths                                  F
 GLOBAL| Grid backend                                                       AUTO
 GLOBAL| Global print level                                               MEDIUM
 GLOBAL| MPI I/O enabled                                                       T
 GLOBAL| Total number of message passing processes                            64
 GLOBAL| Number of threads for this process                                    2
 GLOBAL| This output is from process                                           0
 GLOBAL| Stack size for threads created by OpenMP (OMP_STACKSIZE)           256M
 GLOBAL| CPU model name                              Intel(R) Xeon(R) Gold 6426Y
 GLOBAL| CPUID                                                              1003
 GLOBAL| Compiled for CPUID                                                    0

 *** HINT in environment.F:920 :: The compiler target flags (generic) used ***
 *** to build this binary cannot exploit all extensions of this CPU model  ***
 *** (x86_avx512). Consider compiler target flags as part of FCFLAGS and   ***
 *** CFLAGS (ARCH file).                                                   ***


 MEMORY| system memory details [Kb]
 MEMORY|                        rank 0           min           max       average
 MEMORY| MemTotal            263786136     263786136     263788448     263786714
 MEMORY| MemFree             246789224     246091452     247237832     246750708
 MEMORY| Buffers                635676        635676       1127944        892180
 MEMORY| Cached                 851624        828496       1176552        940671
 MEMORY| Slab                  1225548        740896       1225548        925155
 MEMORY| SReclaimable           143528        143528        307204        221203
 MEMORY| MemLikelyFree       248420052     248419988     249162240     248804762


 *** Fundamental physical constants (SI units) ***

 *** Literature: B. J. Mohr and B. N. Taylor,
 ***             CODATA recommended values of the fundamental physical
 ***             constants: 2006, Web Version 5.1
 ***             http://physics.nist.gov/constants

 Speed of light in vacuum [m/s]                             2.99792458000000E+08
 Magnetic constant or permeability of vacuum [N/A**2]       1.25663706143592E-06
 Electric constant or permittivity of vacuum [F/m]          8.85418781762039E-12
 Planck constant (h) [J*s]                                  6.62606896000000E-34
 Planck constant (h-bar) [J*s]                              1.05457162825177E-34
 Elementary charge [C]                                      1.60217648700000E-19
 Electron mass [kg]                                         9.10938215000000E-31
 Electron g factor [ ]                                     -2.00231930436220E+00
 Proton mass [kg]                                           1.67262163700000E-27
 Fine-structure constant                                    7.29735253760000E-03
 Rydberg constant [1/m]                                     1.09737315685270E+07
 Avogadro constant [1/mol]                                  6.02214179000000E+23
 Boltzmann constant [J/K]                                   1.38065040000000E-23
 Atomic mass unit [kg]                                      1.66053878200000E-27
 Bohr radius [m]                                            5.29177208590000E-11

 *** Conversion factors ***

 [u] -> [a.u.]                                              1.82288848426455E+03
 [Angstrom] -> [Bohr] = [a.u.]                              1.88972613288564E+00
 [a.u.] = [Bohr] -> [Angstrom]                              5.29177208590000E-01
 [a.u.] -> [s]                                              2.41888432650478E-17
 [a.u.] -> [fs]                                             2.41888432650478E-02
 [a.u.] -> [J]                                              4.35974393937059E-18
 [a.u.] -> [N]                                              8.23872205491840E-08
 [a.u.] -> [K]                                              3.15774647902944E+05
 [a.u.] -> [kJ/mol]                                         2.62549961709828E+03
 [a.u.] -> [kcal/mol]                                       6.27509468713739E+02
 [a.u.] -> [Pa]                                             2.94210107994716E+13
 [a.u.] -> [bar]                                            2.94210107994716E+08
 [a.u.] -> [atm]                                            2.90362800883016E+08
 [a.u.] -> [eV]                                             2.72113838565563E+01
 [a.u.] -> [Hz]                                             6.57968392072181E+15
 [a.u.] -> [1/cm] (wave numbers)                            2.19474631370540E+05
 [a.u./Bohr**2] -> [1/cm]                                   5.14048714338585E+03
 

 CELL_TOP| Volume [angstrom^3]:                                       424.784591
 CELL_TOP| Vector a [angstrom    11.252     0.000     0.000   |a| =    11.252000
 CELL_TOP| Vector b [angstrom     0.000     3.831     0.000   |b| =     3.831200
 CELL_TOP| Vector c [angstrom    -5.053     0.000     9.854   |c| =    11.074000
 CELL_TOP| Angle (b,c), alpha [degree]:                                90.000000
 CELL_TOP| Angle (a,c), beta  [degree]:                               117.150000
 CELL_TOP| Angle (a,b), gamma [degree]:                                90.000000
 CELL_TOP| Numerically orthorhombic:                                          NO
 CELL_TOP| Periodicity                                                       XYZ

 CELL| Volume [angstrom^3]:                                           424.784591
 CELL| Vector a [angstrom]:      11.252     0.000     0.000   |a| =    11.252000
 CELL| Vector b [angstrom]:       0.000     3.831     0.000   |b| =     3.831200
 CELL| Vector c [angstrom]:      -5.053     0.000     9.854   |c| =    11.074000
 CELL| Angle (b,c), alpha [degree]:                                    90.000000
 CELL| Angle (a,c), beta  [degree]:                                   117.150000
 CELL| Angle (a,b), gamma [degree]:                                    90.000000
 CELL| Numerically orthorhombic:                                              NO
 CELL| Periodicity                                                           XYZ

 CELL_REF| Volume [angstrom^3]:                                       424.784591
 CELL_REF| Vector a [angstrom    11.252     0.000     0.000   |a| =    11.252000
 CELL_REF| Vector b [angstrom     0.000     3.831     0.000   |b| =     3.831200
 CELL_REF| Vector c [angstrom    -5.053     0.000     9.854   |c| =    11.074000
 CELL_REF| Angle (b,c), alpha [degree]:                                90.000000
 CELL_REF| Angle (a,c), beta  [degree]:                               117.150000
 CELL_REF| Angle (a,b), gamma [degree]:                                90.000000
 CELL_REF| Numerically orthorhombic:                                          NO
 CELL_REF| Periodicity                                                       XYZ

 *******************************************************************************
 *******************************************************************************
 **                                                                           **
 **     #####                         ##              ##                      **
 **    ##   ##            ##          ##              ##                      **
 **   ##     ##                       ##            ######                    **
 **   ##     ##  ##   ##  ##   #####  ##  ##   ####   ##    #####    #####    **
 **   ##     ##  ##   ##  ##  ##      ## ##   ##      ##   ##   ##  ##   ##   **
 **   ##  ## ##  ##   ##  ##  ##      ####     ###    ##   ######   ######    **
 **    ##  ###   ##   ##  ##  ##      ## ##      ##   ##   ##       ##        **
 **     #######   #####   ##   #####  ##  ##  ####    ##    #####   ##        **
 **           ##                                                    ##        **
 **                                                                           **
 **                                                ... make the atoms dance   **
 **                                                                           **
 **            Copyright (C) by CP2K developers group (2000-2024)             **
 **                      J. Chem. Phys. 152, 194103 (2020)                    **
 **                                                                           **
 *******************************************************************************

 DFT| Spin restricted Kohn-Sham (RKS) calculation                            RKS
 DFT| Multiplicity                                                             1
 DFT| Number of spin states                                                    1
 DFT| Charge                                                                   0
 DFT| Self-interaction correction (SIC)                                       NO
 DFT| Cutoffs: density                                              1.000000E-10
 DFT|          gradient                                             1.000000E-10
 DFT|          tau                                                  1.000000E-10
 DFT|          cutoff_smoothing_range                               0.000000E+00
 DFT| XC density smoothing                                                  NONE
 DFT| XC derivatives                                                          PW

 FUNCTIONAL| PBE:
 FUNCTIONAL| J.P.Perdew, K.Burke, M.Ernzerhof, Phys. Rev. Letter, vol. 77, n 18,
 FUNCTIONAL|  pp. 3865-3868, (1996) {spin unpolarized}                          

 vdW POTENTIAL|                                                   Pair Potential
 vdW POTENTIAL|          DFT-D3 (Version 3.1)
 vdW POTENTIAL|          Potential Form: S. Grimme et al, JCP 132: 154104 (2010)
 vdW POTENTIAL|          Zero Damping
 vdW POTENTIAL|          Cutoff Radius [Bohr]:                             37.79
 vdW POTENTIAL|          s6 Scaling Factor:                               1.0000
 vdW POTENTIAL|          sr6 Scaling Factor:                              1.2170
 vdW POTENTIAL|          s8 Scaling Factor:                               0.7220
 vdW POTENTIAL|          Cutoff for CN calculation:                   0.1000E-05

 QS| Method:                                                                 GPW
 QS| Density plane wave grid type                        NON-SPHERICAL FULLSPACE
 QS| Number of grid levels:                                                    4
 QS| Density cutoff [a.u.]:                                                400.0
 QS| Multi grid cutoff [a.u.]: 1) grid level                               400.0
 QS|                           2) grid level                               133.3
 QS|                           3) grid level                                44.4
 QS|                           4) grid level                                14.8
 QS| Grid level progression factor:                                          3.0
 QS| Relative density cutoff [a.u.]:                                        30.0
 QS| Interaction thresholds: eps_pgf_orb:                                3.2E-09
 QS|                         eps_filter_matrix:                          0.0E+00
 QS|                         eps_core_charge:                            1.0E-19
 QS|                         eps_rho_gspace:                             1.0E-17
 QS|                         eps_rho_rspace:                             1.0E-17
 QS|                         eps_gvg_rspace:                             3.2E-09
 QS|                         eps_ppl:                                    1.0E-02
 QS|                         eps_ppnl:                                   3.2E-11


 ATOMIC KIND INFORMATION

  1. Atomic kind: N                                     Number of atoms:       8

     Orbital Basis Set                                           TZVP-MOLOPT-GTH

       Number of orbital shell sets:                                           1
       Number of orbital shells:                                               7
       Number of primitive Cartesian functions:                                7
       Number of Cartesian basis functions:                                   18
       Number of spherical basis functions:                                   17
       Norm type:                                                              2

       Normalised Cartesian orbitals:

                        Set   Shell   Orbital            Exponent    Coefficient

                          1       1    2s                9.042730      -0.237404
                                                         3.882225      -0.265910
                                                         1.512880       0.102064
                                                         0.586631       0.295369
                                                         0.222851       0.088647
                                                         0.084583       0.003860
                                                         0.039194       0.000722

                          1       2    3s                9.042730       0.259152
                                                         3.882225       0.251432
                                                         1.512880      -0.043896
                                                         0.586631      -0.328079
                                                         0.222851       0.175857
                                                         0.084583       0.069169
                                                         0.039194       0.004207

                          1       3    4s                9.042730       0.330627
                                                         3.882225       0.738242
                                                         1.512880      -0.570149
                                                         0.586631       0.474918
                                                         0.222851       0.192885
                                                         0.084583      -0.214824
                                                         0.039194       0.031577

                          1       4    3px               9.042730       0.822162
                                                         3.882225       0.990771
                                                         1.512880       0.665657
                                                         0.586631       0.321705
                                                         0.222851       0.063706
                                                         0.084583       0.004155
                                                         0.039194      -0.000005
                          1       4    3py               9.042730       0.822162
                                                         3.882225       0.990771
                                                         1.512880       0.665657
                                                         0.586631       0.321705
                                                         0.222851       0.063706
                                                         0.084583       0.004155
                                                         0.039194      -0.000005
                          1       4    3pz               9.042730       0.822162
                                                         3.882225       0.990771
                                                         1.512880       0.665657
                                                         0.586631       0.321705
                                                         0.222851       0.063706
                                                         0.084583       0.004155
                                                         0.039194      -0.000005

                          1       5    4px               9.042730      -0.251449
                                                         3.882225      -0.215479
                                                         1.512880      -0.200519
                                                         0.586631      -0.125283
                                                         0.222851       0.136219
                                                         0.084583       0.034362
                                                         0.039194       0.000879
                          1       5    4py               9.042730      -0.251449
                                                         3.882225      -0.215479
                                                         1.512880      -0.200519
                                                         0.586631      -0.125283
                                                         0.222851       0.136219
                                                         0.084583       0.034362
                                                         0.039194       0.000879
                          1       5    4pz               9.042730      -0.251449
                                                         3.882225      -0.215479
                                                         1.512880      -0.200519
                                                         0.586631      -0.125283
                                                         0.222851       0.136219
                                                         0.084583       0.034362
                                                         0.039194       0.000879

                          1       6    5px               9.042730      -1.546561
                                                         3.882225       0.742834
                                                         1.512880      -1.783177
                                                         0.586631       0.969458
                                                         0.222851       0.077327
                                                         0.084583      -0.117711
                                                         0.039194       0.027593
                          1       6    5py               9.042730      -1.546561
                                                         3.882225       0.742834
                                                         1.512880      -1.783177
                                                         0.586631       0.969458
                                                         0.222851       0.077327
                                                         0.084583      -0.117711
                                                         0.039194       0.027593
                          1       6    5pz               9.042730      -1.546561
                                                         3.882225       0.742834
                                                         1.512880      -1.783177
                                                         0.586631       0.969458
                                                         0.222851       0.077327
                                                         0.084583      -0.117711
                                                         0.039194       0.027593

                          1       7    4dx2              9.042730       1.099742
                                                         3.882225       0.532064
                                                         1.512880       0.873643
                                                         0.586631       0.456348
                                                         0.222851       0.017840
                                                         0.084583      -0.000857
                                                         0.039194      -0.000086
                          1       7    4dxy              9.042730       1.904809
                                                         3.882225       0.921562
                                                         1.512880       1.513195
                                                         0.586631       0.790419
                                                         0.222851       0.030900
                                                         0.084583      -0.001484
                                                         0.039194      -0.000150
                          1       7    4dxz              9.042730       1.904809
                                                         3.882225       0.921562
                                                         1.512880       1.513195
                                                         0.586631       0.790419
                                                         0.222851       0.030900
                                                         0.084583      -0.001484
                                                         0.039194      -0.000150
                          1       7    4dy2              9.042730       1.099742
                                                         3.882225       0.532064
                                                         1.512880       0.873643
                                                         0.586631       0.456348
                                                         0.222851       0.017840
                                                         0.084583      -0.000857
                                                         0.039194      -0.000086
                          1       7    4dyz              9.042730       1.904809
                                                         3.882225       0.921562
                                                         1.512880       1.513195
                                                         0.586631       0.790419
                                                         0.222851       0.030900
                                                         0.084583      -0.001484
                                                         0.039194      -0.000150
                          1       7    4dz2              9.042730       1.099742
                                                         3.882225       0.532064
                                                         1.512880       0.873643
                                                         0.586631       0.456348
                                                         0.222851       0.017840
                                                         0.084583      -0.000857
                                                         0.039194      -0.000086

       Atomic covalent radius [Angstrom]:                                  0.750

       Atomic van der Waals radius [Angstrom]:                             1.550

     GTH Potential information for                                    GTH-PBE-q5

       Description:                       Goedecker-Teter-Hutter pseudopotential
                                           Goedecker et al., PRB 54, 1703 (1996)
                                          Hartwigsen et al., PRB 58, 3641 (1998)
                                                      Krack, TCA 114, 145 (2005)

       Gaussian exponent of the core charge distribution:               6.208322
       Electronic configuration (s p d ...):                               2   3

       Parameters of the local part of the GTH pseudopotential:

                          rloc        C1          C2          C3          C4
                        0.283791  -12.415226    1.868096

       Parameters of the non-local part of the GTH pseudopotential:

                   l      r(l)      h(i,j,l)

                   0    0.255405   13.630263
                   1    0.245495

  2. Atomic kind: C                                     Number of atoms:      16

     Orbital Basis Set                                           TZVP-MOLOPT-GTH

       Number of orbital shell sets:                                           1
       Number of orbital shells:                                               7
       Number of primitive Cartesian functions:                                7
       Number of Cartesian basis functions:                                   18
       Number of spherical basis functions:                                   17
       Norm type:                                                              2

       Normalised Cartesian orbitals:

                        Set   Shell   Orbital            Exponent    Coefficient

                          1       1    2s                6.132625      -0.263661
                                                         2.625196      -0.231112
                                                         1.045457       0.042712
                                                         0.478316       0.306085
                                                         0.178617       0.065483
                                                         0.075145       0.000568
                                                         0.030287       0.000417

                          1       2    3s                6.132625       0.131937
                                                         2.625196       0.414269
                                                         1.045457      -0.593590
                                                         0.478316       0.644922
                                                         0.178617       0.069203
                                                         0.075145      -0.145101
                                                         0.030287       0.008247

                          1       3    4s                6.132625      -1.009391
                                                         2.625196      -0.608763
                                                         1.045457      -0.320627
                                                         0.478316       1.417678
                                                         0.178617      -0.917862
                                                         0.075145       0.286664
                                                         0.030287      -0.031483

                          1       4    3px               6.132625       0.562677
                                                         2.625196       0.633910
                                                         1.045457       0.379157
                                                         0.478316       0.235193
                                                         0.178617       0.052379
                                                         0.075145       0.003677
                                                         0.030287       0.000105
                          1       4    3py               6.132625       0.562677
                                                         2.625196       0.633910
                                                         1.045457       0.379157
                                                         0.478316       0.235193
                                                         0.178617       0.052379
                                                         0.075145       0.003677
                                                         0.030287       0.000105
                          1       4    3pz               6.132625       0.562677
                                                         2.625196       0.633910
                                                         1.045457       0.379157
                                                         0.478316       0.235193
                                                         0.178617       0.052379
                                                         0.075145       0.003677
                                                         0.030287       0.000105

                          1       5    4px               6.132625      -0.472364
                                                         2.625196      -0.221326
                                                         1.045457      -0.481781
                                                         0.478316       0.135466
                                                         0.178617       0.072281
                                                         0.075145       0.024920
                                                         0.030287       0.002706
                          1       5    4py               6.132625      -0.472364
                                                         2.625196      -0.221326
                                                         1.045457      -0.481781
                                                         0.478316       0.135466
                                                         0.178617       0.072281
                                                         0.075145       0.024920
                                                         0.030287       0.002706
                          1       5    4pz               6.132625      -0.472364
                                                         2.625196      -0.221326
                                                         1.045457      -0.481781
                                                         0.478316       0.135466
                                                         0.178617       0.072281
                                                         0.075145       0.024920
                                                         0.030287       0.002706

                          1       6    5px               6.132625      -0.321125
                                                         2.625196      -0.513960
                                                         1.045457      -0.659092
                                                         0.478316       1.236398
                                                         0.178617      -0.279443
                                                         0.075145       0.042466
                                                         0.030287      -0.008547
                          1       6    5py               6.132625      -0.321125
                                                         2.625196      -0.513960
                                                         1.045457      -0.659092
                                                         0.478316       1.236398
                                                         0.178617      -0.279443
                                                         0.075145       0.042466
                                                         0.030287      -0.008547
                          1       6    5pz               6.132625      -0.321125
                                                         2.625196      -0.513960
                                                         1.045457      -0.659092
                                                         0.478316       1.236398
                                                         0.178617      -0.279443
                                                         0.075145       0.042466
                                                         0.030287      -0.008547

                          1       7    4dx2              6.132625       0.874783
                                                         2.625196       0.375772
                                                         1.045457       0.653959
                                                         0.478316       0.191007
                                                         0.178617       0.018656
                                                         0.075145       0.003649
                                                         0.030287      -0.000011
                          1       7    4dxy              6.132625       1.515169
                                                         2.625196       0.650856
                                                         1.045457       1.132690
                                                         0.478316       0.330834
                                                         0.178617       0.032314
                                                         0.075145       0.006321
                                                         0.030287      -0.000019
                          1       7    4dxz              6.132625       1.515169
                                                         2.625196       0.650856
                                                         1.045457       1.132690
                                                         0.478316       0.330834
                                                         0.178617       0.032314
                                                         0.075145       0.006321
                                                         0.030287      -0.000019
                          1       7    4dy2              6.132625       0.874783
                                                         2.625196       0.375772
                                                         1.045457       0.653959
                                                         0.478316       0.191007
                                                         0.178617       0.018656
                                                         0.075145       0.003649
                                                         0.030287      -0.000011
                          1       7    4dyz              6.132625       1.515169
                                                         2.625196       0.650856
                                                         1.045457       1.132690
                                                         0.478316       0.330834
                                                         0.178617       0.032314
                                                         0.075145       0.006321
                                                         0.030287      -0.000019
                          1       7    4dz2              6.132625       0.874783
                                                         2.625196       0.375772
                                                         1.045457       0.653959
                                                         0.478316       0.191007
                                                         0.178617       0.018656
                                                         0.075145       0.003649
                                                         0.030287      -0.000011

       Atomic covalent radius [Angstrom]:                                  0.770

       Atomic van der Waals radius [Angstrom]:                             1.700

     GTH Potential information for                                    GTH-PBE-q4

       Description:                       Goedecker-Teter-Hutter pseudopotential
                                           Goedecker et al., PRB 54, 1703 (1996)
                                          Hartwigsen et al., PRB 58, 3641 (1998)
                                                      Krack, TCA 114, 145 (2005)

       Gaussian exponent of the core charge distribution:               4.364419
       Electronic configuration (s p d ...):                               2   2

       Parameters of the local part of the GTH pseudopotential:

                          rloc        C1          C2          C3          C4
                        0.338471   -8.803674    1.339211

       Parameters of the non-local part of the GTH pseudopotential:

                   l      r(l)      h(i,j,l)

                   0    0.302576    9.622487
                   1    0.291507

  3. Atomic kind: H                                     Number of atoms:      16

     Orbital Basis Set                                           TZVP-MOLOPT-GTH

       Number of orbital shell sets:                                           1
       Number of orbital shells:                                               4
       Number of primitive Cartesian functions:                                7
       Number of Cartesian basis functions:                                    6
       Number of spherical basis functions:                                    6
       Norm type:                                                              2

       Normalised Cartesian orbitals:

                        Set   Shell   Orbital            Exponent    Coefficient

                          1       1    2s               11.478000       0.129129
                                                         3.700759       0.177012
                                                         1.446884       0.141285
                                                         0.716815       0.245670
                                                         0.247919       0.094768
                                                         0.066918       0.004062
                                                         0.021708      -0.000053

                          1       2    3s               11.478000      -0.079256
                                                         3.700759      -0.152992
                                                         1.446884       0.015066
                                                         0.716815      -0.331234
                                                         0.247919       0.210690
                                                         0.066918       0.058630
                                                         0.021708      -0.003429

                          1       3    4s               11.478000      -0.246880
                                                         3.700759       0.023016
                                                         1.446884      -1.109374
                                                         0.716815       1.524652
                                                         0.247919      -0.227968
                                                         0.066918      -0.037343
                                                         0.021708       0.005696

                          1       4    3px              11.478000       0.325290
                                                         3.700759       0.187466
                                                         1.446884       0.443300
                                                         0.716815       0.267738
                                                         0.247919       0.088285
                                                         0.066918       0.019092
                                                         0.021708       0.000629
                          1       4    3py              11.478000       0.325290
                                                         3.700759       0.187466
                                                         1.446884       0.443300
                                                         0.716815       0.267738
                                                         0.247919       0.088285
                                                         0.066918       0.019092
                                                         0.021708       0.000629
                          1       4    3pz              11.478000       0.325290
                                                         3.700759       0.187466
                                                         1.446884       0.443300
                                                         0.716815       0.267738
                                                         0.247919       0.088285
                                                         0.066918       0.019092
                                                         0.021708       0.000629

       Atomic covalent radius [Angstrom]:                                  0.320

       Atomic van der Waals radius [Angstrom]:                             1.090

     GTH Potential information for                                    GTH-PBE-q1

       Description:                       Goedecker-Teter-Hutter pseudopotential
                                           Goedecker et al., PRB 54, 1703 (1996)
                                          Hartwigsen et al., PRB 58, 3641 (1998)
                                                      Krack, TCA 114, 145 (2005)

       Gaussian exponent of the core charge distribution:              12.500000
       Electronic configuration (s p d ...):                                   1

       Parameters of the local part of the GTH pseudopotential:

                          rloc        C1          C2          C3          C4
                        0.200000   -4.178900    0.724463


 MOLECULE KIND INFORMATION


 All atoms are their own molecule, skipping detailed information


 TOTAL NUMBERS AND MAXIMUM NUMBERS

  Total number of            - Atomic kinds:                                   3
                             - Atoms:                                         40
                             - Shell sets:                                    40
                             - Shells:                                       232
                             - Primitive Cartesian functions:                280
                             - Cartesian basis functions:                    528
                             - Spherical basis functions:                    504

  Maximum angular momentum of- Orbital basis functions:                        2
                             - Local part of the GTH pseudopotential:          2
                             - Non-local part of the GTH pseudopotential:      0


 MODULE QUICKSTEP: ATOMIC COORDINATES IN ANGSTROM

   Atom Kind Element         X             Y             Z       Z(eff)     Mass
      1    1 N     7      0.048158      0.046379      1.391296   5.0000  14.0067
      2    2 C     6      0.643727      0.957422      0.626460   4.0000  12.0107
      3    3 H     1      1.145927      1.780003      1.125595   1.0000   1.0079
      4    2 C     6     -0.653046     -0.853733      0.700271   4.0000  12.0107
      5    3 H     1     -1.109980     -1.665650      1.258057   1.0000   1.0079
      6    1 N     7      4.458533      1.794891      0.813274   5.0000  14.0067
      7    2 C     6      5.432943      0.898077      0.973056   4.0000  12.0107
      8    3 H     1      5.259188      0.097541      1.686273   1.0000   1.0079
      9    2 C     6      4.725287      2.698597     -0.127135   4.0000  12.0107
     10    3 H     1      4.018829      3.514000     -0.248786   1.0000   1.0079
     11    1 N     7     -2.695831      1.957181      3.455892   5.0000  14.0067
     12    2 C     6     -3.290344      2.860482      4.232597   4.0000  12.0107
     13    3 H     1     -3.822861      3.670414      3.743597   1.0000   1.0079
     14    2 C     6     -1.983865      1.061786      4.142130   4.0000  12.0107
     15    3 H     1     -1.514964      0.260957      3.577310   1.0000   1.0079
     16    1 N     7     -6.932395      3.769200      4.211504   5.0000  14.0067
     17    2 C     6     -7.929506      2.917788      3.976217   4.0000  12.0107
     18    3 H     1     -7.808158      2.227824      3.140454   1.0000   1.0079
     19    2 C     6     -7.174786      4.624297      5.201606   4.0000  12.0107
     20    3 H     1     -6.382444      5.320952      5.470730   1.0000   1.0079
     21    1 N     7     -0.153493      0.073310     -1.453029   5.0000  14.0067
     22    2 C     6     -0.836603     -0.776363     -0.690626   4.0000  12.0107
     23    3 H     1     -1.552461     -1.439312     -1.177597   1.0000   1.0079
     24    2 C     6      0.629306      0.912719     -0.778435   4.0000  12.0107
     25    3 H     1      1.266857      1.580314     -1.360164   1.0000   1.0079
     26    1 N     7     -4.376658     -2.020896     -0.717824   5.0000  14.0067
     27    2 C     6     -5.377497     -1.168599     -0.933272   4.0000  12.0107
     28    3 H     1     -5.270867     -0.475786     -1.768282   1.0000   1.0079
     29    2 C     6     -4.601531     -2.876780      0.276160   4.0000  12.0107
     30    3 H     1     -3.804364     -3.573526      0.530800   1.0000   1.0079
     31    1 N     7      2.581741     -1.855838     -3.543716   5.0000  14.0067
     32    2 C     6      3.242973     -2.712418     -4.319425   4.0000  12.0107
     33    3 H     1      3.932131     -3.404840     -3.836799   1.0000   1.0079
     34    2 C     6      1.808644     -1.005523     -4.217876   4.0000  12.0107
     35    3 H     1      1.201312     -0.314121     -3.633479   1.0000   1.0079
     36    1 N     7      6.930402     -3.880621     -4.152902   5.0000  14.0067
     37    2 C     6      7.900536     -2.982192     -3.977666   4.0000  12.0107
     38    3 H     1      7.713417     -2.180378     -3.269754   1.0000   1.0079
     39    2 C     6      7.213749     -4.783629     -5.089950   4.0000  12.0107
     40    3 H     1      6.508896     -5.598197     -5.226702   1.0000   1.0079



 SCF PARAMETERS         Density guess:                                   RESTART
                        --------------------------------------------------------
                        max_scf:                                              10
                        max_scf_history:                                       0
                        max_diis:                                              4
                        --------------------------------------------------------
                        eps_scf:                                        1.00E-09
                        eps_scf_history:                                0.00E+00
                        eps_diis:                                       1.00E-01
                        eps_eigval:                                     1.00E-05
                        --------------------------------------------------------
                        level_shift [a.u.]:                             0.000000
                        --------------------------------------------------------
                        Outer loop SCF in use 
                        No variables optimised in outer loop
                        eps_scf                                         1.00E-09
                        max_scf                                              900
                        No outer loop optimization
                        step_size                                       5.00E-01

 PW_GRID| Information for grid number                                          1
 PW_GRID| Grid distributed over                                    64 processors
 PW_GRID| Real space group dimensions                                    64    1
 PW_GRID| the grid is blocked:                                                NO
 PW_GRID| Cutoff [a.u.]                                                    400.0
 PW_GRID| spherical cutoff:                                                   NO
 PW_GRID|   Bounds   1            -96      95                Points:         192
 PW_GRID|   Bounds   2            -36      35                Points:          72
 PW_GRID|   Bounds   3            -96      95                Points:         192
 PW_GRID| Volume element (a.u.^3)  0.1080E-02     Volume (a.u.^3)      2866.5885
 PW_GRID| Grid span                                                    FULLSPACE
 PW_GRID|   Distribution                         Average         Max         Min
 PW_GRID|   G-Vectors                            41472.0       41472       41472
 PW_GRID|   G-Rays                                 216.0         216         216
 PW_GRID|   Real Space Points                    41472.0       41472       41472

 PW_GRID| Information for grid number                                          2
 PW_GRID| Number of the reference grid                                         1
 PW_GRID| Grid distributed over                                    64 processors
 PW_GRID| Real space group dimensions                                    64    1
 PW_GRID| the grid is blocked:                                                NO
 PW_GRID| Cutoff [a.u.]                                                    133.3
 PW_GRID| spherical cutoff:                                                   NO
 PW_GRID|   Bounds   1            -60      59                Points:         120
 PW_GRID|   Bounds   2            -20      19                Points:          40
 PW_GRID|   Bounds   3            -60      59                Points:         120
 PW_GRID| Volume element (a.u.^3)  0.4977E-02     Volume (a.u.^3)      2866.5885
 PW_GRID| Grid span                                                    FULLSPACE
 PW_GRID|   Distribution                         Average         Max         Min
 PW_GRID|   G-Vectors                             9000.0        9600        8400
 PW_GRID|   G-Rays                                  75.0          80          70
 PW_GRID|   Real Space Points                     9000.0        9600        4800

 PW_GRID| Information for grid number                                          3
 PW_GRID| Number of the reference grid                                         1
 PW_GRID| Grid distributed over                                    64 processors
 PW_GRID| Real space group dimensions                                    64    1
 PW_GRID| the grid is blocked:                                                NO
 PW_GRID| Cutoff [a.u.]                                                     44.4
 PW_GRID| spherical cutoff:                                                   NO
 PW_GRID|   Bounds   1            -32      31                Points:          64
 PW_GRID|   Bounds   2            -12      11                Points:          24
 PW_GRID|   Bounds   3            -32      31                Points:          64
 PW_GRID| Volume element (a.u.^3)  0.2916E-01     Volume (a.u.^3)      2866.5885
 PW_GRID| Grid span                                                    FULLSPACE
 PW_GRID|   Distribution                         Average         Max         Min
 PW_GRID|   G-Vectors                             1536.0        1920        1152
 PW_GRID|   G-Rays                                  24.0          30          18
 PW_GRID|   Real Space Points                     1536.0        1536        1536

 PW_GRID| Information for grid number                                          4
 PW_GRID| Number of the reference grid                                         1
 PW_GRID| Grid distributed over                                    64 processors
 PW_GRID| Real space group dimensions                                     8    8
 PW_GRID| the grid is blocked:                                                NO
 PW_GRID| Cutoff [a.u.]                                                     14.8
 PW_GRID| spherical cutoff:                                                   NO
 PW_GRID|   Bounds   1            -20      19                Points:          40
 PW_GRID|   Bounds   2             -7       7                Points:          15
 PW_GRID|   Bounds   3            -20      19                Points:          40
 PW_GRID| Volume element (a.u.^3)  0.1194         Volume (a.u.^3)      2866.5885
 PW_GRID| Grid span                                                    FULLSPACE
 PW_GRID|   Distribution                         Average         Max         Min
 PW_GRID|   G-Vectors                              375.0         560         280
 PW_GRID|   G-Rays                                   9.4          14           7
 PW_GRID|   Real Space Points                      375.0         400         200

 POISSON| Solver                                                        PERIODIC
 POISSON| Periodicity                                                        XYZ

 RS_GRID| Information for grid number                                          1
 RS_GRID|   Bounds   1            -96      95                Points:         192
 RS_GRID|   Bounds   2            -36      35                Points:          72
 RS_GRID|   Bounds   3            -96      95                Points:         192
 RS_GRID| Real space distribution over                                  8 groups
 RS_GRID| Real space distribution along direction                              1
 RS_GRID| Border size                                                         46
 RS_GRID| Real space distribution over                                  8 groups
 RS_GRID| Real space distribution along direction                              3
 RS_GRID| Border size                                                         46
 RS_GRID|   Distribution                         Average         Max         Min
 RS_GRID|   Planes                                 116.0         116         116
 RS_GRID|   Distribution                         Average         Max         Min
 RS_GRID|   Planes                                 116.0         116         116

 RS_GRID| Information for grid number                                          2
 RS_GRID|   Bounds   1            -60      59                Points:         120
 RS_GRID|   Bounds   2            -20      19                Points:          40
 RS_GRID|   Bounds   3            -60      59                Points:         120
 RS_GRID| Real space fully replicated
 RS_GRID| Group size                                                           1

 RS_GRID| Information for grid number                                          3
 RS_GRID|   Bounds   1            -32      31                Points:          64
 RS_GRID|   Bounds   2            -12      11                Points:          24
 RS_GRID|   Bounds   3            -32      31                Points:          64
 RS_GRID| Real space fully replicated
 RS_GRID| Group size                                                           1

 RS_GRID| Information for grid number                                          4
 RS_GRID|   Bounds   1            -20      19                Points:          40
 RS_GRID|   Bounds   2             -7       7                Points:          15
 RS_GRID|   Bounds   3            -20      19                Points:          40
 RS_GRID| Real space fully replicated
 RS_GRID| Group size                                                           1

 *******************************************************************************
 *******************************************************************************
 **                                                                           **
 **  #  #   #    #                  #     #                      ##           **
 **  #  #        ###   # ##   ###  ####         ##   # #    ###   #           **
 **  #  #   #    #  #  ##    #  #   #     #    #  #  ## #  #  #   #           **
 **   ##    #    #  #  #     # ##   #     #    #  #  #  #  # ##   #           **
 **   ##    #    ###   #      # #    ##   #     ##   #  #   # #  ###          **
 **                                                                           **
 **   ##               ##                 #                                   **
 **  #  #  # #    ###   #    #  #   ###         ###                           **
 **  #  #  ## #  #  #   #    #  #  ##     #    ##                             **
 **  ####  #  #  # ##   #     ###    ##   #      ##  N. Replicas:           4 **
 **  #  #  #  #   # #  ###      #  ###    #    ###   N. Procs/Rep:         16 **
 **                           ##                                              **
 **                                       T. Laino  and F. Schiffmann         **
 **                                       2008 - 2015                         **
 *******************************************************************************
 *******************************************************************************

 REPLICA| layout of the replica grid, number of groups                         4
 REPLICA| layout of the replica grid, size of each group                      16
 REPLICA| MPI process to grid (group,rank) correspondence:
  (   0 :    0,   0)  (   1 :    0,   1)  (   2 :    0,   2)  (   3 :    0,   3)
  (   4 :    0,   4)  (   5 :    0,   5)  (   6 :    0,   6)  (   7 :    0,   7)
  (   8 :    0,   8)  (   9 :    0,   9)  (  10 :    0,  10)  (  11 :    0,  11)
  (  12 :    0,  12)  (  13 :    0,  13)  (  14 :    0,  14)  (  15 :    0,  15)
  (  16 :    1,   0)  (  17 :    1,   1)  (  18 :    1,   2)  (  19 :    1,   3)
  (  20 :    1,   4)  (  21 :    1,   5)  (  22 :    1,   6)  (  23 :    1,   7)
  (  24 :    1,   8)  (  25 :    1,   9)  (  26 :    1,  10)  (  27 :    1,  11)
  (  28 :    1,  12)  (  29 :    1,  13)  (  30 :    1,  14)  (  31 :    1,  15)
  (  32 :    2,   0)  (  33 :    2,   1)  (  34 :    2,   2)  (  35 :    2,   3)
  (  36 :    2,   4)  (  37 :    2,   5)  (  38 :    2,   6)  (  39 :    2,   7)
  (  40 :    2,   8)  (  41 :    2,   9)  (  42 :    2,  10)  (  43 :    2,  11)
  (  44 :    2,  12)  (  45 :    2,  13)  (  46 :    2,  14)  (  47 :    2,  15)
  (  48 :    3,   0)  (  49 :    3,   1)  (  50 :    3,   2)  (  51 :    3,   3)
  (  52 :    3,   4)  (  53 :    3,   5)  (  54 :    3,   6)  (  55 :    3,   7)
  (  56 :    3,   8)  (  57 :    3,   9)  (  58 :    3,  10)  (  59 :    3,  11)
  (  60 :    3,  12)  (  61 :    3,  13)  (  62 :    3,  14)  (  63 :    3,  15)

 VIB| Vibrational Analysis Info
 VIB| REPLICA Nr.    1- Energy and Forces for particle:    1  coordinate: X + DX
 VIB|                                     Total energy:        -180.019960110111
 VIB|    ATOM                            X                Y                Z
 VIB|      N                      -0.000257754     -0.000241788     -0.000008207           
 VIB|      C                       0.000131595      0.000077594     -0.000071207           
 VIB|      H                      -0.000002187      0.000019598     -0.000008494           
 VIB|      C                       0.000150403      0.000087053      0.000073318           
 VIB|      H                      -0.000001312      0.000019155      0.000007840           
 VIB|      N                       0.000000257     -0.000000070     -0.000000147           
 VIB|      C                      -0.000000104      0.000000222     -0.000000038           
 VIB|      H                      -0.000000163     -0.000000064     -0.000000011           
 VIB|      C                      -0.000000011     -0.000000337      0.000000208           
 VIB|      H                      -0.000000029      0.000000032      0.000000199           
 VIB|      N                       0.000000302     -0.000000319     -0.000000521           
 VIB|      C                      -0.000000117      0.000000140      0.000000083           
 VIB|      H                      -0.000000189     -0.000000134     -0.000000031           
 VIB|      C                       0.000000289      0.000000862     -0.000000134           
 VIB|      H                       0.000000031     -0.000000383      0.000000819           
 VIB|      N                       0.000000234     -0.000000144      0.000000159           
 VIB|      C                       0.000000010     -0.000000268     -0.000000315           
 VIB|      H                      -0.000000284      0.000000111      0.000000088           
 VIB|      C                      -0.000000336      0.000000124      0.000000048           
 VIB|      H                      -0.000000076      0.000000081     -0.000000006           
 VIB|      N                       0.000039047      0.000013622     -0.000003869           
 VIB|      C                      -0.000020040      0.000009314      0.000043337           
 VIB|      H                      -0.000005723      0.000004598      0.000001826           
 VIB|      C                      -0.000031011      0.000006789     -0.000034689           
 VIB|      H                      -0.000006044      0.000005360      0.000000051           
 VIB|      N                       0.000000069     -0.000000089      0.000000132           
 VIB|      C                       0.000000005      0.000000022     -0.000000046           
 VIB|      H                       0.000000083     -0.000000016     -0.000000076           
 VIB|      C                      -0.000000224      0.000000213     -0.000000128           
 VIB|      H                       0.000000092     -0.000000141     -0.000000121           
 VIB|      N                      -0.000000315     -0.000000400     -0.000000282           
 VIB|      C                       0.000000561     -0.000000398      0.000000131           
 VIB|      H                       0.000000075      0.000000025     -0.000000039           
 VIB|      C                      -0.000000179     -0.000000030     -0.000000098           
 VIB|      H                       0.000000012     -0.000000042      0.000000084           
 VIB|      N                      -0.000000111     -0.000000119      0.000000016           
 VIB|      C                       0.000000252      0.000000192      0.000000056           
 VIB|      H                       0.000000042     -0.000000001     -0.000000023           
 VIB|      C                      -0.000000105     -0.000000038     -0.000000046           
 VIB|      H                       0.000000233      0.000000088     -0.000000233           
 VIB| REPLICA Nr.    2- Energy and Forces for particle:    1  coordinate: Y + DY
 VIB|                                     Total energy:        -180.019960010907
 VIB|    ATOM                            X                Y                Z
 VIB|      N                      -0.000241783     -0.000455661      0.000019673           
 VIB|      C                       0.000103093      0.000192524     -0.000078983           
 VIB|      H                       0.000006219      0.000033045     -0.000015669           
 VIB|      C                       0.000110082      0.000183128      0.000060585           
 VIB|      H                       0.000008291      0.000031766      0.000014987           
 VIB|      N                      -0.000000117     -0.000000040      0.000000087           
 VIB|      C                       0.000000034      0.000000054     -0.000000122           
 VIB|      H                       0.000000018      0.000000006     -0.000000018           
 VIB|      C                       0.000000015      0.000000014     -0.000000006           
 VIB|      H                       0.000000149     -0.000000043     -0.000000032           
 VIB|      N                       0.000000305     -0.000000188     -0.000000163           
 VIB|      C                       0.000000001      0.000000093      0.000000032           
 VIB|      H                      -0.000000011     -0.000000009      0.000000000           
 VIB|      C                      -0.000000168     -0.000000667      0.000000238           
 VIB|      H                      -0.000000322      0.000000717      0.000000287           
 VIB|      N                      -0.000000020      0.000000048      0.000000037           
 VIB|      C                      -0.000000002      0.000000060     -0.000000070           
 VIB|      H                       0.000000012     -0.000000040     -0.000000060           
 VIB|      C                       0.000000071     -0.000000096     -0.000000050           
 VIB|      H                       0.000000051     -0.000000003     -0.000000017           
 VIB|      N                       0.000041173      0.000049755     -0.000002286           
 VIB|      C                      -0.000008676     -0.000017727      0.000065560           
 VIB|      H                      -0.000000409     -0.000000969     -0.000000167           
 VIB|      C                      -0.000017575     -0.000015693     -0.000065079           
 VIB|      H                      -0.000000047     -0.000001437      0.000000202           
 VIB|      N                      -0.000000144     -0.000000040     -0.000000028           
 VIB|      C                       0.000000061     -0.000000010     -0.000000060           
 VIB|      H                      -0.000000038      0.000000002      0.000000015           
 VIB|      C                       0.000000097     -0.000000070      0.000000033           
 VIB|      H                       0.000000174     -0.000000009     -0.000000023           
 VIB|      N                       0.000000227      0.000000173     -0.000000187           
 VIB|      C                      -0.000000212      0.000000180     -0.000000005           
 VIB|      H                      -0.000000036     -0.000000028     -0.000000004           
 VIB|      C                       0.000000073     -0.000000052      0.000000090           
 VIB|      H                      -0.000000009      0.000000025      0.000000194           
 VIB|      N                       0.000000054      0.000000021      0.000000037           
 VIB|      C                      -0.000000114     -0.000000067     -0.000000027           
 VIB|      H                      -0.000000036      0.000000008      0.000000026           
[...]
    34  C             0.00 -0.00 -0.00    -0.00  0.00  0.00    -0.00  0.00  0.00
    35  H            -0.03  0.03  0.03     0.03 -0.04 -0.04     0.00 -0.00 -0.00
    36  N             0.00 -0.00 -0.00     0.00 -0.00 -0.00     0.00  0.00 -0.00
    37  C             0.01 -0.03 -0.03     0.01 -0.04 -0.03     0.00 -0.00 -0.00
    38  H            -0.09  0.37  0.31    -0.10  0.40  0.34    -0.01  0.03  0.02
    39  C             0.02  0.03  0.00     0.03  0.03  0.01     0.00  0.00  0.00
    40  H            -0.26 -0.31 -0.04    -0.30 -0.36 -0.05    -0.03 -0.03 -0.00



 VIB|                        NORMAL MODES - THERMOCHEMICAL DATA
 VIB|
 VIB|              Symmetry number:                                                 1
 VIB|              Temperature [K]:                                            273.15
 VIB|              Pressure [Pa]:                                           101325.00


 VIB|              Electronic energy (U) [kJ/mol]:                   -472642.33667686
 VIB|              Zero-point correction [kJ/mol]:                       796.91644902
 VIB|              Entropy [kJ/(mol K)]:                                   0.65594141
 VIB|              Enthalpy correction (H-U) [kJ/mol]:                   850.67567602
 VIB|              Gibbs energy correction [kJ/mol]:                     671.50528119
 VIB|              Heat capacity [kJ/(mol*K)]:                             0.31958204



 -------------------------------------------------------------------------------
 -                                                                             -
 -                                DBCSR STATISTICS                             -
 -                                                                             -
 -------------------------------------------------------------------------------
 COUNTER                                    TOTAL       BLAS       SMM       ACC
 flops     6 x    28 x    28            155947008       0.0%    100.0%      0.0%
 flops     6 x    32 x    32            203685888       0.0%    100.0%      0.0%
 flops    28 x    28 x    28            261667840       0.0%    100.0%      0.0%
 flops    28 x    28 x    32            299048960       0.0%    100.0%      0.0%
 flops    28 x    32 x    28            299048960       0.0%    100.0%      0.0%
 flops    32 x    28 x    28            299048960       0.0%    100.0%      0.0%
 flops    32 x    32 x    28            341770240       0.0%    100.0%      0.0%
 flops    28 x    32 x    32            341770240       0.0%    100.0%      0.0%
 flops    32 x    28 x    32            341770240       0.0%    100.0%      0.0%
 flops    32 x    32 x    32            390594560       0.0%    100.0%      0.0%
 flops    17 x    28 x    28            662774784       0.0%    100.0%      0.0%
 flops    17 x    32 x    32            865665024       0.0%    100.0%      0.0%
 flops     6 x     6 x    28           1032820992       0.0%    100.0%      0.0%
 flops     6 x     6 x    32           1180366848       0.0%    100.0%      0.0%
 flops    57 x    28 x    28           1390333056       0.0%    100.0%      0.0%
 flops    57 x    28 x    32           1588952064       0.0%    100.0%      0.0%
 flops    57 x    32 x    28           1588952064       0.0%    100.0%      0.0%
 flops    69 x    28 x    28           1683034752       0.0%    100.0%      0.0%
 flops    57 x    32 x    32           1815945216       0.0%    100.0%      0.0%
 flops    69 x    28 x    32           1923468288       0.0%    100.0%      0.0%
 flops    69 x    32 x    28           1923468288       0.0%    100.0%      0.0%
 flops    69 x    32 x    32           2198249472       0.0%    100.0%      0.0%
 flops    46 x    28 x    28           2244046336       0.0%    100.0%      0.0%
 flops    46 x    32 x    28           2564624384       0.0%    100.0%      0.0%
 flops    46 x    28 x    32           2564624384       0.0%    100.0%      0.0%
 flops    46 x    32 x    32           2930999296       0.0%    100.0%      0.0%
 flops    63 x    28 x    28           3073367808       0.0%    100.0%      0.0%
 flops    63 x    28 x    32           3512420352       0.0%    100.0%      0.0%
 flops    63 x    32 x    28           3512420352       0.0%    100.0%      0.0%
 flops    80 x    28 x    28           3902689280       0.0%    100.0%      0.0%
 flops    63 x    32 x    32           4014194688       0.0%    100.0%      0.0%
 flops     6 x    17 x    28           4131283968       0.0%    100.0%      0.0%
 flops    17 x     6 x    28           4131283968       0.0%    100.0%      0.0%
 flops    80 x    32 x    28           4460216320       0.0%    100.0%      0.0%
 flops    80 x    28 x    32           4460216320       0.0%    100.0%      0.0%
 flops     6 x    17 x    32           4721467392       0.0%    100.0%      0.0%
 flops    17 x     6 x    32           4721467392       0.0%    100.0%      0.0%
 flops    80 x    32 x    32           5097390080       0.0%    100.0%      0.0%
 flops     6 x    28 x     6           5525323776       0.0%    100.0%      0.0%
 flops     6 x    32 x     6           6314655744       0.0%    100.0%      0.0%
 flops    28 x    28 x   126          10284599808       0.0%    100.0%      0.0%
 flops    28 x    32 x   126          11753828352       0.0%    100.0%      0.0%
 flops    32 x    28 x   126          11753828352       0.0%    100.0%      0.0%
 flops    57 x    28 x   126          12146198400       0.0%    100.0%      0.0%
 flops    32 x    32 x   126          13432946688       0.0%    100.0%      0.0%
 flops    57 x    32 x   126          13881369600       0.0%    100.0%      0.0%
 flops    69 x    28 x   126          14703292800       0.0%    100.0%      0.0%
 flops    69 x    32 x   126          16803763200       0.0%    100.0%      0.0%
 flops    17 x    17 x    28          18289538400       0.0%    100.0%      0.0%
 flops    46 x    28 x   126          19604390400       0.0%    100.0%      0.0%
 flops    17 x    17 x    32          20902329600       0.0%    100.0%      0.0%
 flops    46 x    32 x   126          22405017600       0.0%    100.0%      0.0%
 flops     6 x    28 x    17          23482626048       0.0%    100.0%      0.0%
 flops    17 x    28 x     6          23482626048       0.0%    100.0%      0.0%
 flops     6 x    32 x    17          26837286912       0.0%    100.0%      0.0%
 flops    17 x    32 x     6          26837286912       0.0%    100.0%      0.0%
 flops    63 x    28 x   126          26849491200       0.0%    100.0%      0.0%
 flops    63 x    32 x   126          30685132800       0.0%    100.0%      0.0%
 flops    80 x    28 x   126          34094592000       0.0%    100.0%      0.0%
 flops    80 x    32 x   126          38965248000       0.0%    100.0%      0.0%
 flops    17 x    28 x    17          99801160704       0.0%    100.0%      0.0%
 flops    17 x    32 x    17         114058469376       0.0%    100.0%      0.0%
 flops inhomo. stacks                           0       0.0%      0.0%      0.0%
 flops total                       723.726099E+09       0.0%    100.0%      0.0%
 flops max/rank                     25.208816E+09       0.0%    100.0%      0.0%
 matmuls inhomo. stacks                         0       0.0%      0.0%      0.0%
 matmuls total                           41756856       0.0%    100.0%      0.0%
 number of processed stacks               4975136       0.0%    100.0%      0.0%
 average stack size                                     0.0       8.4       0.0
 marketing flops                   782.995161E+09
 -------------------------------------------------------------------------------
 # multiplications                          14613
 max memory usage/rank             533.753856E+06
 # max total images/rank                        1
 # max 3D layers                                1
 # MPI messages exchanged                 5576160
 MPI messages size (bytes):
  total size                       163.331604E+09
  min size                           0.000000E+00
  max size                         127.008000E+03
  average size                      29.291055E+03
 MPI breakdown and total messages size (bytes):
             size <=      128             2722104                        0
       128 < size <=     8192              335928               2418880512
      8192 < size <=    32768             1641840              49649241600
     32768 < size <=   131072              876288             111295586304
    131072 < size <=  4194304                   0                        0
   4194304 < size <= 16777216                   0                        0
  16777216 < size                               0                        0
 -------------------------------------------------------------------------------
 -                                                                             -
 -                      DBCSR MESSAGE PASSING PERFORMANCE                      -
 -                                                                             -
 -------------------------------------------------------------------------------
 ROUTINE             CALLS      AVE VOLUME [Bytes]
 MP_Bcast               63                     12.
 MP_Allreduce        76273                      8.
 MP_Alltoall         70671                   8324.
 MP_ISend           233312                  14311.
 MP_IRecv           233312                  13218.
 -------------------------------------------------------------------------------

 -------------------------------------------------------------------------------
 -                                                                             -
 -                                DBM STATISTICS                               -
 -                                                                             -
 -------------------------------------------------------------------------------
    M  x    N  x    K                                          COUNT     PERCENT
 -------------------------------------------------------------------------------

 -------------------------------------------------------------------------------
 -                                                                             -
 -                                GRID STATISTICS                              -
 -                                                                             -
 -------------------------------------------------------------------------------
 LP    KERNEL             BACKEND                              COUNT     PERCENT
 3     collocate general  CPU                             1458529473      24.04%
 3     integrate general  CPU                             1398075527      23.04%
 4     integrate general  CPU                             1021822274      16.84%
 4     collocate general  CPU                              989325616      16.31%
 2     collocate general  CPU                              585663722       9.65%
 2     integrate general  CPU                              545101148       8.98%
 5     integrate general  CPU                               68519862       1.13%
 0     collocate general  CPU                                  19520       0.00%
 0     integrate general  CPU                                   9760       0.00%
 1     integrate general  CPU                                   9760       0.00%
 -------------------------------------------------------------------------------

 MEMORY| Estimated peak process memory [MiB]                                 510

 -------------------------------------------------------------------------------
 ----                             MULTIGRID INFO                            ----
 -------------------------------------------------------------------------------
 count for grid        1:        1306624          cutoff [a.u.]          400.00
 count for grid        2:        1225472          cutoff [a.u.]          133.33
 count for grid        3:         806400          cutoff [a.u.]           44.44
 count for grid        4:         758016          cutoff [a.u.]           14.81
 total gridlevel count  :        4096512

 -------------------------------------------------------------------------------
 -                                                                             -
 -                         MESSAGE PASSING PERFORMANCE                         -
 -                                                                             -
 -------------------------------------------------------------------------------

 ROUTINE             CALLS      AVE VOLUME [Bytes]
 MP_Group                5
 MP_Bcast               87                6471064.
 MP_Allreduce          473                    557.
 MP_Sync                 4
 MP_comm_split           2
 -------------------------------------------------------------------------------


 -------------------------------------------------------------------------------
 -                                                                             -
 -                           R E F E R E N C E S                               -
 -                                                                             -
 -------------------------------------------------------------------------------
 
 CP2K version 2024.1 (Development Version), the CP2K developers group (2024).
 CP2K is freely available from https://www.cp2k.org/ .

 Kuehne,Thomas D.; Iannuzzi,Marcella; Del Ben,Mauro;
 Rybkin,Vladimir V.; Seewald,Patrick; Stein,Frederick; Laino,Teodoro;
 Khaliullin,Rustam Z.; Schuett,Ole; Schiffmann,Florian; Golze,Dorothea;
 Wilhelm,Jan; Chulkov,Sergey; Bani-Hashemian,Mohammad Hossein;
 Weber,Valery; Borstnik,Urban; Taillefumier,Mathieu;
 Jakobovits,Alice Shoshana; Lazzaro,Alfio; Pabst,Hans; Mueller,Tiziano;
 Schade,Robert; Guidon,Manuel; Andermatt,Samuel; Holmberg,Nico;
 Schenter,Gregory K.; Hehn,Anna; Bussy,Augustin; Belleflamme,Fabian;
 Tabacchi,Gloria; Gloess,Andreas; Lass,Michael; Bethune,Iain;
 Mundy,Christopher J.; Plessl,Christian; Watkins,Matt;
 VandeVondele,Joost; Krack,Matthias; Hutter,Juerg. 
 The Journal of Chemical Physics, 152 (19), (2020). 
 CP2K: An electronic structure and molecular dynamics software package -
 Quickstep: Efficient and accurate electronic structure calculations.
 https://doi.org/10.1063/5.0007045

 Goerigk, Lars; Hansen, Andreas; Bauer, Christoph; Ehrlich, Stephan;
 Najibi, Asim; Grimme, Stefan. , 19 (48), (2017). 
 A look at the density functional theory zoo with the advanced GMTKN55 database
 for general main group thermochemistry, kinetics and noncovalent interactions.
 https://doi.org/10.1039/C7CP04913G

 Schuett, Ole; Messmer, Peter; Hutter, Juerg; VandeVondele, Joost. 
 Electronic Structure Calculations on Graphics Processing Units, John
 Wiley & Sons, Ltd, 173-190 (2016). 
 GPU-Accelerated Sparse Matrix-Matrix Multiplication for
 Linear Scaling Density Functional Theory.
 https://doi.org/10.1002/9781118670712.ch8

 Heinecke, A; Henry, G; Hutchinson, M; Pabst, H. 
 Proceedings of Intl. Supercomputing Conference, 981-991 (2016). 
 LIBXSMM: Accelerating Small Matrix Multiplications
 by Runtime Code Generation.
 https://doi.org/10.1109/SC.2016.83

 Borstnik, U; VandeVondele, J; Weber, V; Hutter, J. 
 PARALLEL COMPUTING, 40 (5-6), 47-58 (2014). 
 Sparse matrix multiplication: The distributed block-compressed sparse
 row library.
 https://doi.org/10.1016/j.parco.2014.03.012

 Hutter, J; Iannuzzi, M; Schiffmann, F; VandeVondele, J. 
 WIREs Comput Mol Sci., 4 (1), 15-25 (2014). 
 CP2K: atomistic simulations of condensed matter systems.
 https://doi.org/10.1002/wcms.1159

 Grimme, S; Ehrlich, S; Goerigk, L. 
 JOURNAL OF COMPUTATIONAL CHEMISTRY, 32, 1456 (2011). 
 Effect of the damping function in dispersion corrected density functional theory.
 https://doi.org/10.1002/jcc.21759

 Grimme, S; Antony, J; Ehrlich, S; Krieg, H. 
 JOURNAL OF CHEMICAL PHYSICS, 132 (15), 154104 (2010). 
 A consistent and accurate ab initio parametrization of density
 functional dispersion correction (DFT-D) for the 94 elements H-Pu.
 https://doi.org/10.1063/1.3382344

 VandeVondele, J; Hutter, J. 
 JOURNAL OF CHEMICAL PHYSICS, 127 (11), 114105 (2007). 
 Gaussian basis sets for accurate calculations on molecular systems in
 gas and condensed phases.
 https://doi.org/10.1063/1.2770708

 Kuhne, TD; Krack, M; Mohamed, FR; Parrinello, M. 
 PHYSICAL REVIEW LETTERS, 98 (6), 066401 (2007). 
 Efficient and accurate Car-Parrinello-like approach to
 Born-Oppenheimer molecular dynamics.
 https://doi.org/10.1103/PhysRevLett.98.066401

 Krack, M. 
 THEORETICAL CHEMISTRY ACCOUNTS, 114 (1-3), 145-152 (2005). 
 Pseudopotentials for H to Kr optimized for gradient-corrected
 exchange-correlation functionals.
 https://doi.org/10.1007/s00214-005-0655-y

 VandeVondele, J; Krack, M; Mohamed, F; Parrinello, M; Chassaing, T;
 Hutter, J. COMPUTER PHYSICS COMMUNICATIONS, 167 (2), 103-128 (2005). 
 QUICKSTEP: Fast and accurate density functional calculations using a
 mixed Gaussian and plane waves approach.
 https://doi.org/10.1016/j.cpc.2004.12.014

 Frigo, M; Johnson, SG. 
 PROCEEDINGS OF THE IEEE, 93 (2), 216-231 (2005). 
 The design and implementation of FFTW3.
 https://doi.org/10.1109/JPROC.2004.840301

 Kolafa, J. 
 JOURNAL OF COMPUTATIONAL CHEMISTRY, 25 (3), 335-342 (2004). 
 Time-reversible always stable predictor-corrector method for
 molecular dynamics of polarizable molecules.
 https://doi.org/10.1002/jcc.10385

 VandeVondele, J; Hutter, J. 
 JOURNAL OF CHEMICAL PHYSICS, 118 (10), 4365-4369 (2003). 
 An efficient orbital transformation method for electronic structure
 calculations.
 https://doi.org/10.1063/1.1543154

 Hartwigsen, C; Goedecker, S; Hutter, J. 
 PHYSICAL REVIEW B, 58 (7), 3641-3662 (1998). 
 Relativistic separable dual-space Gaussian pseudopotentials from H to Rn.
 https://doi.org/10.1103/PhysRevB.58.3641

 Lippert, G; Hutter, J; Parrinello, M. 
 MOLECULAR PHYSICS, 92 (3), 477-487 (1997). 
 A hybrid Gaussian and plane wave density functional scheme.
 https://doi.org/10.1080/002689797170220

 Perdew, JP; Burke, K; Ernzerhof, M. 
 PHYSICAL REVIEW LETTERS, 77 (18), 3865-3868 (1996). 
 Generalized gradient approximation made simple.
 https://doi.org/10.1103/PhysRevLett.77.3865

 Goedecker, S; Teter, M; Hutter, J. 
 PHYSICAL REVIEW B, 54 (3), 1703-1710 (1996). 
 Separable dual-space Gaussian pseudopotentials.
 https://doi.org/10.1103/PhysRevB.54.1703


 -------------------------------------------------------------------------------
 -                                                                             -
 -                                T I M I N G                                  -
 -                                                                             -
 -------------------------------------------------------------------------------
 SUBROUTINE                       CALLS  ASD         SELF TIME        TOTAL TIME
                                MAXIMUM       AVERAGE  MAXIMUM  AVERAGE  MAXIMUM
 CP2K                                 1  1.0     0.01     0.03 22878.21 22878.32
 vb_anal                              1  2.0 22877.73 22877.82 22877.94 22878.04
 -------------------------------------------------------------------------------

 The number of warnings for this run is : 1
 
 -------------------------------------------------------------------------------
  **** **** ******  **  PROGRAM ENDED AT                 2024-10-01 16:13:34.147
 ***** ** ***  *** **   PROGRAM RAN ON                               nesh-srp324
 **    ****   ******    PROGRAM RAN BY                                  suphc356
 ***** **    ** ** **   PROGRAM PROCESS ID                               3573290
  **** **  *******  **  PROGRAM STOPPED IN /gxfs_work/cau/suphc356/NEWTONX_proje
                                           ct/Pyrazin_crystal/plain_pyrazine/CP2
                                           K_GPW_PBE_MOLOPT_TZVP/FINAL_IC_TDDFT_
                                           80_states_6_second/JOB_AD/vib
